#     Step Nr.          Time[fs]        Kin.[a.u.]          Temp[K]            Pot.[a.u.]        Cons Qty[a.u.]        UsedTime[s]
         0            0.000000         0.275037913       300.000000000     -1102.172781261     -1101.897743349         0.000000000
         1            0.500000         0.997423905      1087.948816655     -1102.994832375     -1101.932455357        74.697556175
         2            1.000000         0.967529402      1055.341127171     -1103.087626100     -1101.911004612        13.554170756
         3            1.500000         0.871521023       950.619150960     -1103.088738557     -1101.907987214        13.961136837
         4            2.000000         0.792818873       864.774095272     -1103.058451569     -1101.906753698        13.988743104
         5            2.500000         0.705604919       769.644714370     -1103.018977311     -1101.905968272        16.651691031
         6            3.000000         0.650811872       709.878720980     -1102.976623656     -1101.905473091        20.809898147
         7            3.500000         0.584533761       637.585293719     -1102.939392176     -1101.905138386        29.747748526
         8            4.000000         0.541642931       590.801746990     -1102.910591512     -1101.904936357        19.563730652
         9            4.500000         0.519982338       567.175266690     -1102.891999137     -1101.904854497        22.470819814
        10            5.000000         0.499849488       545.215185027     -1102.883556983     -1101.904894451        25.298199959
        11            5.500000         0.511895733       558.354731403     -1102.884731311     -1101.905178983        19.449863641
        12            6.000000         0.498260548       543.482035404     -1102.889152383     -1101.905416846        18.598654408
        13            6.500000         0.477681806       521.035592831     -1102.894411296     -1101.906061365        21.660681503
        14            7.000000         0.466307281       508.628730938     -1102.895003313     -1101.906847819        15.586845675
        15            7.500000         0.475466866       518.619627429     -1102.879393862     -1101.907327686        14.912731754
        16            8.000000         0.445328742       485.746206409     -1102.847209634     -1101.906217139        13.380762829
        17            8.500000         0.413810805       451.367742079     -1102.821079809     -1101.904424687        15.510182120
        18            9.000000         0.391078395       426.572167869     -1102.822088452     -1101.905337235        17.773391526
        19            9.500000         0.408725123       445.820489353     -1102.836594354     -1101.906999561        14.056738494
        20           10.000000         0.405780879       442.609030296     -1102.846938298     -1101.907397994        16.394293008
        21           10.500000         0.392438897       428.056146364     -1102.843857804     -1101.907044052        20.116420815
        22           11.000000         0.370038641       403.622872789     -1102.837456607     -1101.906780988        16.302701941
        23           11.500000         0.354648831       386.836302754     -1102.835467254     -1101.906781815        23.231633065
        24           12.000000         0.355954754       388.260749935     -1102.836232527     -1101.906873584        14.797279814
        25           12.500000         0.365095162       398.230729446     -1102.837770481     -1101.906942489        17.029026991
        26           13.000000         0.364044950       397.085201627     -1102.839806670     -1101.906942463        15.561396508
        27           13.500000         0.384571873       419.475122265     -1102.841447399     -1101.906852749        14.762874898
        28           14.000000         0.376073802       410.205776698     -1102.844934617     -1101.906733621        14.057635544
        29           14.500000         0.366226009       399.464210876     -1102.852406938     -1101.906694556        14.778955910
        30           15.000000         0.381023921       415.605162554     -1102.859420720     -1101.906643175        15.191904144
        31           15.500000         0.387931045       423.139167887     -1102.868444533     -1101.906623656        14.003316248
        32           16.000000         0.390659869       426.115656558     -1102.878717992     -1101.906630112        14.028732792
        33           16.500000         0.391233540       426.741393145     -1102.892087146     -1101.906696458        10.241015624
        34           17.000000         0.390981457       426.466431019     -1102.906959892     -1101.906887079        10.955849551
        35           17.500000         0.414132870       451.719037350     -1102.921829545     -1101.907278644        11.010144120
        36           18.000000         0.394282214       430.066760433     -1102.932123196     -1101.907701948        10.953583205
        37           18.500000         0.413591328       451.128345571     -1102.930077103     -1101.907778104        11.764863050
        38           19.000000         0.388340079       423.585325763     -1102.920506222     -1101.907388234        12.532174774
        39           19.500000         0.386109276       421.152057570     -1102.911327935     -1101.906908898        11.782051209
        40           20.000000         0.377284345       411.526186841     -1102.906182647     -1101.906717253        14.426470151
        41           20.500000         0.382385781       417.090622545     -1102.909089916     -1101.906871392        10.990140673
        42           21.000000         0.379371901       413.803207168     -1102.919251340     -1101.907235936        11.766002154
        43           21.500000         0.374494119       408.482724033     -1102.929904688     -1101.907492319        11.763287524
        44           22.000000         0.390013115       425.410204440     -1102.939209551     -1101.907646537        12.541404676
        45           22.500000         0.374034166       407.981026225     -1102.945916909     -1101.907700808        11.796511801
        46           23.000000         0.362807265       395.735186521     -1102.948535523     -1101.907607659        11.767155947
        47           23.500000         0.372562538       406.375835042     -1102.954827603     -1101.907587776        12.541035805
        48           24.000000         0.370401593       404.018765170     -1102.964376259     -1101.907600251        12.516300114
        49           24.500000         0.376085942       410.219018767     -1102.976377453     -1101.907664750        15.668479096
        50           25.000000         0.371320225       405.020770821     -1102.989683688     -1101.907788882        14.876087254
        51           25.500000         0.364907434       398.025964183     -1103.005283392     -1101.907968587        16.402409587
        52           26.000000         0.373162228       407.029952319     -1103.019905650     -1101.908189179        14.772074275
        53           26.500000         0.373351731       407.236654517     -1103.028497153     -1101.908425849        13.291852616
        54           27.000000         0.369044203       402.538180407     -1103.032714939     -1101.908778096        11.748277720
        55           27.500000         0.367510503       400.865284107     -1103.027171063     -1101.908867117        10.197497714
        56           28.000000         0.350960369       382.813081012     -1103.016398844     -1101.908169117        10.236431904
        57           28.500000         0.362858560       395.791136520     -1103.015047594     -1101.907427170         9.457342504
        58           29.000000         0.370256033       403.859994121     -1103.028365589     -1101.908119559         9.459314428
        59           29.500000         0.380803406       415.364633313     -1103.050335289     -1101.909203000         9.425103649
        60           30.000000         0.388828345       424.117905848     -1103.067211508     -1101.909568098        11.784158254
        61           30.500000         0.381774257       416.423597587     -1103.073967110     -1101.909514113         9.465163982
        62           31.000000         0.372644978       406.465757412     -1103.073236558     -1101.909358876         9.441716056
        63           31.500000         0.369402028       402.928480979     -1103.070633401     -1101.909246383         9.409323990
        64           32.000000         0.382529552       417.247442711     -1103.065390593     -1101.909124210         9.477897005
        65           32.500000         0.372936526       406.783765546     -1103.061406580     -1101.909054006         9.491641143
        66           33.000000         0.368110400       401.519627049     -1103.056915771     -1101.908961605         9.443561440
        67           33.500000         0.353425866       385.502343628     -1103.055269624     -1101.908937292         9.439020526
        68           34.000000         0.365170399       398.312794807     -1103.054177954     -1101.908969698         9.438119045
        69           34.500000         0.384408365       419.296773946     -1103.057496221     -1101.909048135         9.481442934
        70           35.000000         0.381227117       415.826800277     -1103.060016042     -1101.909090672        11.492926139
        71           35.500000         0.371275300       404.971768909     -1103.062028716     -1101.909095773         9.470031979
        72           36.000000         0.359750138       392.400598224     -1103.066271629     -1101.909175667         9.448901979
        73           36.500000         0.359172642       391.770689795     -1103.069896986     -1101.909259507         9.432167213
        74           37.000000         0.351732842       383.655662800     -1103.072740053     -1101.909303491         8.669268241
        75           37.500000         0.373448538       407.342247269     -1103.075867955     -1101.909278775         9.533066588
        76           38.000000         0.359368936       391.984799255     -1103.079442044     -1101.909215481         8.680750454
        77           38.500000         0.351009099       382.866233447     -1103.084004650     -1101.909131404         7.918399893
        78           39.000000         0.367524518       400.880570605     -1103.093103442     -1101.909269920         7.928891813
        79           39.500000         0.386964472       422.084870040     -1103.100069502     -1101.909466589         7.886584664
        80           40.000000         0.374784955       408.799956219     -1103.103872085     -1101.909587927        10.167313768
        81           40.500000         0.394573439       430.384416991     -1103.103618650     -1101.909632727         7.917146683
        82           41.000000         0.363124291       396.080984859     -1103.099289209     -1101.909633653         7.914900858
        83           41.500000         0.362628110       395.539771078     -1103.092289656     -1101.909572195         7.891667794
        84           42.000000         0.382671560       417.402338457     -1103.083144022     -1101.909327224         7.891851960
        85           42.500000         0.372633813       406.453578773     -1103.073831970     -1101.908941656         7.974602506
        86           43.000000         0.343687990       374.880669917     -1103.070107697     -1101.908849010         7.943202000
        87           43.500000         0.345282020       376.619372051     -1103.076093481     -1101.909208924         7.959922956
        88           44.000000         0.367139180       400.460259771     -1103.086492660     -1101.909511977         7.898250517
        89           44.500000         0.356161186       388.485917833     -1103.090607867     -1101.909524380         7.904521737
        90           45.000000         0.344283029       375.529713872     -1103.089251594     -1101.909422296        10.367876818
        91           45.500000         0.339311205       370.106654025     -1103.087429551     -1101.909311878         7.923371563
        92           46.000000         0.321426282       350.598518418     -1103.086915520     -1101.909228929         7.933630763
        93           46.500000         0.326034649       355.625134721     -1103.086216341     -1101.909197956         7.908744536
        94           47.000000         0.319877762       348.909456265     -1103.088538467     -1101.909274042         7.921584697
        95           47.500000         0.321549124       350.732509252     -1103.090440520     -1101.909359019         7.944460850
        96           48.000000         0.326033484       355.623863862     -1103.085674354     -1101.909250668         7.910553837
        97           48.500000         0.329579594       359.491814733     -1103.079118172     -1101.909030173         7.970612772
        98           49.000000         0.317633578       346.461592806     -1103.072598882     -1101.908832919         7.911950661
        99           49.500000         0.309760955       337.874461481     -1103.070649736     -1101.908821418         7.904777711
       100           50.000000         0.300531698       327.807568714     -1103.074040951     -1101.908943225        10.730075542
       101           50.500000         0.310001712       338.137068884     -1103.080055609     -1101.909079501         7.908027651
       102           51.000000         0.313934660       342.426966518     -1103.088468354     -1101.909235952         7.917263890
       103           51.500000         0.321740912       350.941703734     -1103.092974048     -1101.909288965         7.874930678
       104           52.000000         0.330022007       359.974379972     -1103.094116358     -1101.909234016         7.951821126
       105           52.500000         0.318203475       347.083213165     -1103.094270394     -1101.909171152         7.919254610
       106           53.000000         0.315935266       344.609144604     -1103.099004950     -1101.909255696         7.902496424
       107           53.500000         0.316563269       345.294144181     -1103.104861777     -1101.909421713         7.925292572
       108           54.000000         0.315201093       343.808338734     -1103.110486444     -1101.909565544         7.940844541
       109           54.500000         0.318249059       347.132934535     -1103.115349985     -1101.909631664         7.911011949
       110           55.000000         0.314490650       343.033417499     -1103.115390020     -1101.909570380        11.183340505
       111           55.500000         0.308987901       337.031245780     -1103.112822470     -1101.909455522         7.944492646
       112           56.000000         0.322327534       351.581566309     -1103.108774249     -1101.909304417         7.914403085
       113           56.500000         0.313112461       341.530145205     -1103.106290639     -1101.909214443         7.884964833
       114           57.000000         0.330870336       360.899702045     -1103.103574020     -1101.909177778         7.888282442
       115           57.500000         0.328092635       357.869900946     -1103.103670417     -1101.909196978         7.899826260
       116           58.000000         0.328194030       357.980498483     -1103.103717197     -1101.909203704         7.937840980
       117           58.500000         0.322936331       352.245617430     -1103.107646023     -1101.909261046         7.950757168
       118           59.000000         0.338553922       369.280641275     -1103.111395102     -1101.909335812         7.936646674
       119           59.500000         0.354269567       386.422617302     -1103.113145407     -1101.909374825         7.908197224
       120           60.000000         0.344395026       375.651875527     -1103.113960788     -1101.909401358        10.850076506
       121           60.500000         0.346839311       378.318001464     -1103.114302800     -1101.909407812         7.997318424
       122           61.000000         0.344012885       375.235052078     -1103.115879469     -1101.909431564         7.958714712
       123           61.500000         0.329993729       359.943535240     -1103.116465932     -1101.909434972         7.891538084
       124           62.000000         0.338145194       368.834816697     -1103.116507512     -1101.909415618         7.909103196
       125           62.500000         0.341331789       372.310623065     -1103.118207911     -1101.909413116         7.135148030
       126           63.000000         0.332946085       363.163843842     -1103.119571155     -1101.909396672         7.923705650
       127           63.500000         0.343029018       374.161890302     -1103.122252109     -1101.909409418         7.920614425
       128           64.000000         0.323188145       352.520285400     -1103.122672559     -1101.909338221         7.899819523
       129           64.500000         0.329917897       359.860820952     -1103.121294340     -1101.909237996         7.162561789
       130           65.000000         0.325500826       355.042862657     -1103.122267619     -1101.909198604        10.468392218
       131           65.500000         0.340588968       371.500385352     -1103.126534620     -1101.909238879         7.190418027
       132           66.000000         0.349909888       381.667259785     -1103.134450614     -1101.909384032         7.946298882
       133           66.500000         0.356192165       388.519708116     -1103.140490862     -1101.909526157         7.129076257
       134           67.000000         0.349984724       381.748888047     -1103.143035035     -1101.909607409         7.176501803
       135           67.500000         0.358708867       391.264822395     -1103.143140678     -1101.909606375         7.173562285
       136           68.000000         0.355371897       387.624993989     -1103.140295915     -1101.909496566         7.148226157
       137           68.500000         0.345567065       376.930287696     -1103.135357311     -1101.909379776         7.969597714
       138           69.000000         0.322999905       352.314960966     -1103.131731010     -1101.909384309         7.198862538
       139           69.500000         0.314868537       343.445600260     -1103.127996324     -1101.909379726         7.136893274
       140           70.000000         0.317668288       346.499453743     -1103.126693549     -1101.909360892         9.966756556
       141           70.500000         0.304824499       332.489978732     -1103.124994239     -1101.909316104         7.907205217
       142           71.000000         0.317116480       345.897564004     -1103.122390828     -1101.909287945         7.946873117
       143           71.500000         0.298459013       325.546769832     -1103.120968712     -1101.909323575         7.928341750
       144           72.000000         0.321517193       350.697679982     -1103.121135117     -1101.909373970         7.169841930
       145           72.500000         0.323675901       353.052309224     -1103.120995120     -1101.909411997         7.197108233
       146           73.000000         0.314294212       342.819150353     -1103.121208784     -1101.909481554         7.936479282
       147           73.500000         0.311622024       339.904438507     -1103.121457093     -1101.909575537         7.383355409
       148           74.000000         0.327015200       356.694679314     -1103.119027748     -1101.909564935         7.153130827
       149           74.500000         0.323793950       353.181073236     -1103.112857089     -1101.909384513         7.151339993
       150           75.000000         0.326045986       355.637500665     -1103.105782036     -1101.909133107        11.235032801
       151           75.500000         0.323549659       352.914609949     -1103.102473378     -1101.909004782         7.944561064
       152           76.000000         0.313651132       342.117705362     -1103.101523481     -1101.909010977         7.172123346
       153           76.500000         0.307790312       335.724964577     -1103.103061761     -1101.909066216         7.168603150
       154           77.000000         0.294301483       321.011907516     -1103.107146805     -1101.909125928         7.157696754
       155           77.500000         0.293879127       320.551218775     -1103.112762267     -1101.909154333         7.242300807
       156           78.000000         0.286935459       312.977352827     -1103.118921401     -1101.909219176         7.207140403
       157           78.500000         0.302930334       330.423902121     -1103.128375785     -1101.909382234         7.923780737
       158           79.000000         0.317253382       346.046890681     -1103.136923629     -1101.909558072         7.165813493
       159           79.500000         0.332994226       363.216354125     -1103.140956223     -1101.909638292         7.139909280
       160           80.000000         0.332650254       362.841163287     -1103.141396816     -1101.909644825        10.415761949
       161           80.500000         0.312392338       340.744664953     -1103.136500755     -1101.909533961         7.180751486
       162           81.000000         0.306600807       334.427501872     -1103.129064995     -1101.909352474         7.154856956
       163           81.500000         0.313470104       341.920247934     -1103.122976069     -1101.909197250         7.171669794
       164           82.000000         0.305319036       333.029399173     -1103.122318452     -1101.909172794         7.170035599
       165           82.500000         0.289992896       316.312278839     -1103.122632003     -1101.909182700         7.140411373
       166           83.000000         0.291747314       318.225924940     -1103.127217123     -1101.909341055         7.142821994
       167           83.500000         0.307322282       335.214457064     -1103.134578917     -1101.909545662         7.127458964
       168           84.000000         0.311650914       339.935950709     -1103.137995058     -1101.909626299         7.168343583
       169           84.500000         0.301859459       329.255835970     -1103.139839992     -1101.909685605         7.141352743
       170           85.000000         0.314465862       343.006379828     -1103.140149372     -1101.909700973         9.769150145
       171           85.500000         0.297060766       324.021619153     -1103.137350466     -1101.909634968         7.180574778
       172           86.000000         0.292015448       318.518394779     -1103.135361192     -1101.909603390         7.170717649
       173           86.500000         0.295697414       322.534531586     -1103.134393257     -1101.909615972         7.131469697
       174           87.000000         0.294873011       321.635306338     -1103.132728085     -1101.909615200         7.130010387
       175           87.500000         0.286947017       312.989959255     -1103.133064930     -1101.909635581         7.129294988
       176           88.000000         0.283451302       309.176978174     -1103.131226479     -1101.909594367         7.147943005
       177           88.500000         0.282610562       308.259933420     -1103.129298972     -1101.909526416         7.156545036
       178           89.000000         0.284947270       310.808718169     -1103.129653077     -1101.909536570         7.122121826
       179           89.500000         0.300776530       328.074621251     -1103.132058330     -1101.909605043         7.167708430
       180           90.000000         0.306698972       334.534576572     -1103.136257058     -1101.909690302        10.124318220
       181           90.500000         0.313409287       341.853911342     -1103.136654458     -1101.909669330         7.158831358
       182           91.000000         0.299162445       326.314044432     -1103.137196451     -1101.909612557         7.157230550
       183           91.500000         0.316498508       345.223505496     -1103.135410952     -1101.909471181         7.148378627
       184           92.000000         0.311411744       339.675073915     -1103.133235549     -1101.909322734         7.157407774
       185           92.500000         0.300587392       327.868316873     -1103.134148286     -1101.909313489         7.146351004
       186           93.000000         0.320450635       349.534323065     -1103.138218483     -1101.909393936         7.121569710
       187           93.500000         0.308538511       336.541069842     -1103.143622810     -1101.909487936         7.172342226
       188           94.000000         0.324018691       353.426210974     -1103.150728536     -1101.909622264         7.172377009
       189           94.500000         0.321949012       351.168690316     -1103.155666726     -1101.909671715         7.111166064
       190           95.000000         0.311099872       339.334896663     -1103.156764339     -1101.909637040         9.866959523
       191           95.500000         0.301760771       329.148190456     -1103.155430325     -1101.909580352         7.145672262
       192           96.000000         0.291276566       317.712453044     -1103.153910867     -1101.909569063         7.149319343
       193           96.500000         0.297266791       324.246342729     -1103.152016707     -1101.909531701         7.150469530
       194           97.000000         0.293359200       319.984104205     -1103.154189882     -1101.909530503         7.893306941
       195           97.500000         0.300616202       327.899742639     -1103.157220253     -1101.909496360         7.921384105
       196           98.000000         0.311208423       339.453299449     -1103.161597494     -1101.909477088         7.138170397
       197           98.500000         0.308901453       336.936951817     -1103.166438149     -1101.909543041         7.129356831
       198           99.000000         0.300233767       327.482598291     -1103.170358994     -1101.909631296         7.186100412
       199           99.500000         0.290133623       316.465777831     -1103.172386489     -1101.909703593         7.157506872
       200          100.000000         0.297524564       324.527511481     -1103.172839229     -1101.909690626        11.115562186
       201          100.500000         0.293543534       320.185167416     -1103.171900248     -1101.909655038         7.159108451
       202          101.000000         0.291082872       317.501179240     -1103.172861034     -1101.909688115         7.101749750
       203          101.500000         0.291847818       318.335550648     -1103.172212527     -1101.909669995         7.157584878
       204          102.000000         0.295856207       322.707735716     -1103.171320442     -1101.909611289         7.154876741
       205          102.500000         0.302276069       329.710256281     -1103.171848059     -1101.909577268         7.121843068
       206          103.000000         0.300301314       327.556274770     -1103.176114352     -1101.909688430         7.985610206
       207          103.500000         0.300103429       327.340430585     -1103.180009859     -1101.909790733         7.164320000
       208          104.000000         0.314063256       342.567233438     -1103.181715116     -1101.909848443         7.130873866
       209          104.500000         0.308582776       336.589351878     -1103.180958769     -1101.909860079         7.132219341
       210          105.000000         0.295537171       322.359744242     -1103.176671394     -1101.909839854        10.358399626
       211          105.500000         0.294522501       321.252984946     -1103.168487264     -1101.909703832         7.167086517
       212          106.000000         0.280791266       306.275520219     -1103.161610136     -1101.909569187         7.125723075
       213          106.500000         0.278204644       303.454139714     -1103.155630804     -1101.909454336         7.137659887
       214          107.000000         0.287417566       313.503215333     -1103.151913089     -1101.909402881         7.139224613
       215          107.500000         0.276372192       301.455376939     -1103.152075079     -1101.909463348         7.161032746
       216          108.000000         0.277255532       302.418887915     -1103.155072909     -1101.909587850         7.148052750
       217          108.500000         0.291448544       317.900039291     -1103.159756314     -1101.909702628         7.141528526
       218          109.000000         0.280575688       306.040376419     -1103.164264386     -1101.909827372         7.118176665
       219          109.500000         0.275607119       300.620867038     -1103.167086145     -1101.909898748         7.153396200
       220          110.000000         0.288477304       314.659132861     -1103.167009415     -1101.909847197         9.675417637
       221          110.500000         0.276488196       301.581909266     -1103.163756160     -1101.909730123         7.149258899
       222          111.000000         0.261619209       285.363432026     -1103.158812342     -1101.909569879         7.166060749
       223          111.500000         0.259960000       283.553635869     -1103.155705544     -1101.909429734         7.170365082
       224          112.000000         0.264942574       288.988421778     -1103.156792312     -1101.909428949         7.157950643
       225          112.500000         0.282946750       308.626633517     -1103.160866816     -1101.909502934         7.130293069
       226          113.000000         0.289163568       315.407681394     -1103.165313170     -1101.909557859         7.140484536
       227          113.500000         0.301823868       329.217014413     -1103.171420078     -1101.909649672         7.158686716