LAMMPS (15 Sep 2022)
OMP_NUM_THREADS environment is not set. Defaulting to 1 thread. (src/comm.cpp:98)
  using 1 OpenMP thread(s) per MPI task
Lattice spacing in x,y,z = 1.4938016 1.4938016 1.4938016
Created orthogonal box = (0 0 0) to (6.6943295 6.6943295 6.6943295)
  1 by 2 by 2 MPI processor grid
Created 365 atoms
  using lattice units in orthogonal box = (0 0 0) to (6.6943295 6.6943295 6.6943295)
  create_atoms CPU = 0.000 seconds
Setting atom values ...
  77 settings made for type
5 atoms in group extra
Deleted 5 atoms, new total = 360
288 atoms in group typea
72 atoms in group typeb
Minimizing initial structure
Generated 0 of 1 mixed pair_coeff terms from geometric mixing rule
Neighbor list info ...
  update: every = 1 steps, delay = 0 steps, check = yes
  max neighbors/atom: 2000, page size: 100000
  master list distance cutoff = 3
  ghost atom cutoff = 3
  binsize = 1.5, bins = 5 5 5
  1 neighbor lists, perpetual/occasional/extra = 1 0 0
  (1) pair lj/cut, perpetual
      attributes: half, newton on
      pair build: half/bin/atomonly/newton
      stencil: half/bin/3d
      bin: standard
Setting up Verlet run ...
  Unit style    : lj
  Current step  : 0
  Time step     : 0.001
Per MPI rank memory allocation (min/avg/max) = 4.13 | 4.13 | 4.131 Mbytes
   Step          Temp          E_pair         E_mol          TotEng         Press     
         0   0              31.924966      0              31.924966      202.31477    
      1000   15.884536      7.9779771      0              31.738595      107.46448    
      2000   17.225344      5.9694166      0              31.73566       98.119254    
      3000   17.041806      6.2477053      0              31.739407      98.328932    
      4000   16.342986      7.2942712      0              31.740655      103.54511    
      5000   16.488682      7.0735922      0              31.737912      102.50661    
      6000   17.193786      6.0196932      0              31.738731      97.401312    
      7000   17.570058      5.4596157      0              31.741494      94.74889     
      8000   17.177303      6.0456136      0              31.739997      97.861044    
      9000   16.986798      6.3310021      0              31.740421      98.990805    
     10000   17.084804      6.1828112      0              31.738831      98.23776     
Loop time of 1.22592 on 4 procs for 10000 steps with 360 atoms

Performance: 704778.180 tau/day, 8157.155 timesteps/s, 2.937 Matom-step/s
96.2% CPU use with 4 MPI tasks x 1 OpenMP threads

MPI task timing breakdown:
Section |  min time  |  avg time  |  max time  |%varavg| %total
---------------------------------------------------------------
Pair    | 0.55487    | 0.57272    | 0.58411    |   1.5 | 46.72
Neigh   | 0.10604    | 0.10682    | 0.10882    |   0.4 |  8.71
Comm    | 0.33717    | 0.34771    | 0.36552    |   1.9 | 28.36
Output  | 0.16073    | 0.16077    | 0.16088    |   0.0 | 13.11
Modify  | 0.0096801  | 0.0099892  | 0.010471   |   0.3 |  0.81
Other   |            | 0.02791    |            |       |  2.28

Nlocal:             90 ave          94 max          83 min
Histogram: 1 0 0 0 0 0 1 0 0 2
Nghost:         1246.5 ave        1262 max        1233 min
Histogram: 1 1 0 0 0 0 0 1 0 1
Neighs:         5168.5 ave        5488 max        4910 min
Histogram: 1 0 0 1 1 0 0 0 0 1

Total # of neighbors = 20674
Ave neighs/atom = 57.427778
Neighbor list builds = 609
Dangerous builds = 0
Total wall time: 0:00:01
Equilibrating at temperature 1.5
LAMMPS (15 Sep 2022)
OMP_NUM_THREADS environment is not set. Defaulting to 1 thread. (src/comm.cpp:98)
  using 1 OpenMP thread(s) per MPI task
Reading restart file ...
  restart file = 15 Sep 2022, LAMMPS = 15 Sep 2022
  restoring atom style atomic from restart
  orthogonal box = (0 0 0) to (6.6943295 6.6943295 6.6943295)
  1 by 2 by 2 MPI processor grid
  restoring pair style lj/cut from restart
  360 atoms
  read_restart CPU = 0.002 seconds
Setting up equilibration run
Resetting global fix info from restart file:
  fix style: nvt, fix ID: 1
Generated 0 of 1 mixed pair_coeff terms from geometric mixing rule
All restart file global fix info was re-assigned
Neighbor list info ...
  update: every = 1 steps, delay = 20 steps, check = yes
  max neighbors/atom: 2000, page size: 100000
  master list distance cutoff = 3
  ghost atom cutoff = 3
  binsize = 1.5, bins = 5 5 5
  1 neighbor lists, perpetual/occasional/extra = 1 0 0
  (1) pair lj/cut, perpetual
      attributes: half, newton on
      pair build: half/bin/atomonly/newton
      stencil: half/bin/3d
      bin: standard
Setting up Verlet run ...
  Unit style    : lj
  Current step  : 0
  Time step     : 0.002
Per MPI rank memory allocation (min/avg/max) = 3.138 | 3.138 | 3.138 Mbytes
   Step          Temp          E_pair         E_mol          TotEng         Press     
         0   1.5401862     -5.3385509      0             -3.0346891      14.460129    
      1000   1.4651922     -5.3235843      0             -3.1319009      14.56903     
      2000   1.6039063     -5.3174248      0             -2.9182484      14.790532    
      2500   1.5224545     -5.0933658      0             -2.8160277      16.068812    
Loop time of 16.0617 on 4 procs for 2500 steps with 360 atoms

Performance: 26896.277 tau/day, 155.650 timesteps/s, 56.034 katom-step/s
75.2% CPU use with 4 MPI tasks x 1 OpenMP threads

MPI task timing breakdown:
Section |  min time  |  avg time  |  max time  |%varavg| %total
---------------------------------------------------------------
Pair    | 0.13385    | 0.13787    | 0.14086    |   0.7 |  0.86
Neigh   | 0.014567   | 0.014943   | 0.015299   |   0.2 |  0.09
Comm    | 0.10524    | 5.9457     | 7.8951     | 138.3 | 37.02
Output  | 3.6952     | 6.7187     | 15.782     | 201.9 | 41.83
Modify  | 0.010639   | 0.011095   | 0.012112   |   0.6 |  0.07
Other   |            | 3.233      |            |       | 20.13

Nlocal:             90 ave          93 max          84 min
Histogram: 1 0 0 0 0 0 1 0 0 2
Nghost:        1233.25 ave        1249 max        1221 min
Histogram: 1 0 1 0 1 0 0 0 0 1
Neighs:           5191 ave        5417 max        4921 min
Histogram: 1 0 0 0 1 0 0 1 0 1

Total # of neighbors = 20764
Ave neighs/atom = 57.677778
Neighbor list builds = 85
Dangerous builds = 0
Total wall time: 0:00:16
Equilibrating at temperature 1.0
LAMMPS (15 Sep 2022)
OMP_NUM_THREADS environment is not set. Defaulting to 1 thread. (src/comm.cpp:98)
  using 1 OpenMP thread(s) per MPI task
Reading restart file ...
  restart file = 15 Sep 2022, LAMMPS = 15 Sep 2022
  restoring atom style atomic from restart
  orthogonal box = (0 0 0) to (6.6943295 6.6943295 6.6943295)
  1 by 2 by 2 MPI processor grid
  restoring pair style lj/cut from restart
  360 atoms
  read_restart CPU = 0.002 seconds
Setting up equilibration run
Resetting global fix info from restart file:
  fix style: nvt, fix ID: 1
Generated 0 of 1 mixed pair_coeff terms from geometric mixing rule
All restart file global fix info was re-assigned
Neighbor list info ...
  update: every = 1 steps, delay = 20 steps, check = yes
  max neighbors/atom: 2000, page size: 100000
  master list distance cutoff = 3
  ghost atom cutoff = 3
  binsize = 1.5, bins = 5 5 5
  1 neighbor lists, perpetual/occasional/extra = 1 0 0
  (1) pair lj/cut, perpetual
      attributes: half, newton on
      pair build: half/bin/atomonly/newton
      stencil: half/bin/3d
      bin: standard
Setting up Verlet run ...
  Unit style    : lj
  Current step  : 0
  Time step     : 0.002
Per MPI rank memory allocation (min/avg/max) = 3.138 | 3.138 | 3.139 Mbytes
   Step          Temp          E_pair         E_mol          TotEng         Press     
         0   0.90216103    -5.958117       0             -4.6086344      10.094231    
      2000   1.0377424     -5.959459       0             -4.4071693      10.380437    
      4000   0.99828909    -5.9271692      0             -4.4338951      10.479486    
      6000   1.0562257     -6.0606485      0             -4.4807109      9.6229548    
      8000   0.98774179    -6.0693491      0             -4.591852       9.5000217    
     10000   1.0340334     -6.0625254      0             -4.5157838      9.6109731    
     12000   1.0073606     -6.0217606      0             -4.5149171      9.8871032    
     12500   1.0090783     -5.9478796      0             -4.4384667      10.47427     
Loop time of 11.4815 on 4 procs for 12500 steps with 360 atoms

Performance: 188128.626 tau/day, 1088.707 timesteps/s, 391.935 katom-step/s
77.3% CPU use with 4 MPI tasks x 1 OpenMP threads

MPI task timing breakdown:
Section |  min time  |  avg time  |  max time  |%varavg| %total
---------------------------------------------------------------
Pair    | 0.63849    | 0.65767    | 0.66621    |   1.4 |  5.73
Neigh   | 0.057007   | 0.058309   | 0.059685   |   0.4 |  0.51
Comm    | 0.41274    | 3.431      | 4.4517     |  94.1 | 29.88
Output  | 2.6224     | 4.5379     | 10.278     | 155.6 | 39.52
Modify  | 0.042963   | 0.044219   | 0.046256   |   0.6 |  0.39
Other   |            | 2.752      |            |       | 23.97

Nlocal:             90 ave          94 max          87 min
Histogram: 2 0 0 0 0 0 0 1 0 1
Nghost:           1243 ave        1266 max        1212 min
Histogram: 1 0 0 0 0 1 0 1 0 1
Neighs:           5192 ave        5430 max        4973 min
Histogram: 1 0 0 0 1 1 0 0 0 1

Total # of neighbors = 20768
Ave neighs/atom = 57.688889
Neighbor list builds = 336
Dangerous builds = 0
Total wall time: 0:00:11
Equilibrating at temperature 0.9
LAMMPS (15 Sep 2022)
OMP_NUM_THREADS environment is not set. Defaulting to 1 thread. (src/comm.cpp:98)
  using 1 OpenMP thread(s) per MPI task
Reading restart file ...
  restart file = 15 Sep 2022, LAMMPS = 15 Sep 2022
  restoring atom style atomic from restart
  orthogonal box = (0 0 0) to (6.6943295 6.6943295 6.6943295)
  1 by 2 by 2 MPI processor grid
  restoring pair style lj/cut from restart
  360 atoms
  read_restart CPU = 0.002 seconds
Setting up equilibration run
Resetting global fix info from restart file:
  fix style: nvt, fix ID: 1
Generated 0 of 1 mixed pair_coeff terms from geometric mixing rule
All restart file global fix info was re-assigned
Neighbor list info ...
  update: every = 1 steps, delay = 25 steps, check = yes
  max neighbors/atom: 2000, page size: 100000
  master list distance cutoff = 3
  ghost atom cutoff = 3
  binsize = 1.5, bins = 5 5 5
  1 neighbor lists, perpetual/occasional/extra = 1 0 0
  (1) pair lj/cut, perpetual
      attributes: half, newton on
      pair build: half/bin/atomonly/newton
      stencil: half/bin/3d
      bin: standard
Setting up Verlet run ...
  Unit style    : lj
  Current step  : 0
  Time step     : 0.002
Per MPI rank memory allocation (min/avg/max) = 3.137 | 3.138 | 3.138 Mbytes
   Step          Temp          E_pair         E_mol          TotEng         Press     
         0   0.90369682    -6.2380635      0             -4.8862837      8.4530268    
      5000   0.90413122    -6.2582673      0             -4.9058377      8.2064731    
     10000   0.93233959    -6.2776196      0             -4.882995       8.1416341    
     15000   0.96603613    -6.2042844      0             -4.7592553      8.8152384    
     20000   0.89216305    -6.2330259      0             -4.8984987      8.4949036    
     25000   0.90878666    -6.0850936      0             -4.7257003      9.3857435    
     30000   0.85233117    -6.1601948      0             -4.8852494      8.7341485    
     35000   0.90668493    -6.2008862      0             -4.8446366      8.6179148    
     37500   0.88378423    -6.1882981      0             -4.8663042      8.6235909    
Loop time of 11.5435 on 4 procs for 37500 steps with 360 atoms

Performance: 561355.984 tau/day, 3248.588 timesteps/s, 1.169 Matom-step/s
82.3% CPU use with 4 MPI tasks x 1 OpenMP threads

MPI task timing breakdown:
Section |  min time  |  avg time  |  max time  |%varavg| %total
---------------------------------------------------------------
Pair    | 1.8917     | 1.9466     | 1.9717     |   2.3 | 16.86
Neigh   | 0.16172    | 0.16657    | 0.16897    |   0.7 |  1.44
Comm    | 1.2165     | 3.739      | 4.6305     |  75.3 | 32.39
Output  | 2.6527     | 4.0002     | 8.0342     | 116.4 | 34.65
Modify  | 0.12143    | 0.12785    | 0.13547    |   1.4 |  1.11
Other   |            | 1.563      |            |       | 13.54

Nlocal:             90 ave          93 max          88 min
Histogram: 1 0 1 0 1 0 0 0 0 1
Nghost:           1233 ave        1255 max        1206 min
Histogram: 1 0 0 0 0 1 1 0 0 1
Neighs:        5211.25 ave        5318 max        5104 min
Histogram: 1 0 1 0 0 0 0 1 0 1

Total # of neighbors = 20845
Ave neighs/atom = 57.902778
Neighbor list builds = 964
Dangerous builds = 0
Total wall time: 0:00:11
Equilibrating at temperature 0.8
LAMMPS (15 Sep 2022)
OMP_NUM_THREADS environment is not set. Defaulting to 1 thread. (src/comm.cpp:98)
  using 1 OpenMP thread(s) per MPI task
Reading restart file ...
  restart file = 15 Sep 2022, LAMMPS = 15 Sep 2022
  restoring atom style atomic from restart
  orthogonal box = (0 0 0) to (6.6943295 6.6943295 6.6943295)
  1 by 2 by 2 MPI processor grid
  restoring pair style lj/cut from restart
  360 atoms
  read_restart CPU = 0.002 seconds
Setting up equilibration run
Resetting global fix info from restart file:
  fix style: nvt, fix ID: 1
Generated 0 of 1 mixed pair_coeff terms from geometric mixing rule
All restart file global fix info was re-assigned
Neighbor list info ...
  update: every = 1 steps, delay = 25 steps, check = yes
  max neighbors/atom: 2000, page size: 100000
  master list distance cutoff = 3
  ghost atom cutoff = 3
  binsize = 1.5, bins = 5 5 5
  1 neighbor lists, perpetual/occasional/extra = 1 0 0
  (1) pair lj/cut, perpetual
      attributes: half, newton on
      pair build: half/bin/atomonly/newton
      stencil: half/bin/3d
      bin: standard
Setting up Verlet run ...
  Unit style    : lj
  Current step  : 0
  Time step     : 0.002
Per MPI rank memory allocation (min/avg/max) = 3.137 | 3.138 | 3.139 Mbytes
   Step          Temp          E_pair         E_mol          TotEng         Press     
         0   0.78847697    -6.2868353      0             -5.1074052      7.9047593    
      5000   0.84892775    -6.4320499      0             -5.1621955      7.1377805    
     10000   0.82594327    -6.3374198      0             -5.1019464      7.6728457    
     15000   0.76704159    -6.3644904      0             -5.217124       7.4926252    
     20000   0.812198      -6.3587502      0             -5.1438373      7.6862133    
     25000   0.76899211    -6.3672302      0             -5.2169462      7.4953855    
     30000   0.77943235    -6.3560841      0             -5.1901832      7.6041923    
     35000   0.74555749    -6.4228082      0             -5.3075785      7.0653295    
     37500   0.86781759    -6.2820567      0             -4.9839462      8.1957943    
Loop time of 7.62853 on 4 procs for 37500 steps with 360 atoms

Performance: 849443.080 tau/day, 4915.759 timesteps/s, 1.770 Matom-step/s
86.1% CPU use with 4 MPI tasks x 1 OpenMP threads

MPI task timing breakdown:
Section |  min time  |  avg time  |  max time  |%varavg| %total
---------------------------------------------------------------
Pair    | 1.8577     | 1.9395     | 1.984      |   3.5 | 25.42
Neigh   | 0.14766    | 0.15713    | 0.16315    |   1.5 |  2.06
Comm    | 1.1586     | 2.5225     | 3.0464     |  49.7 | 33.07
Output  | 1.2235     | 1.9572     | 4.1523     |  90.6 | 25.66
Modify  | 0.11875    | 0.12607    | 0.13318    |   1.6 |  1.65
Other   |            | 0.9261     |            |       | 12.14

Nlocal:             90 ave          96 max          87 min
Histogram: 1 1 1 0 0 0 0 0 0 1
Nghost:        1242.25 ave        1254 max        1226 min
Histogram: 1 0 0 1 0 0 0 0 0 2
Neighs:         5182.5 ave        5478 max        5007 min
Histogram: 1 1 0 1 0 0 0 0 0 1

Total # of neighbors = 20730
Ave neighs/atom = 57.583333
Neighbor list builds = 895
Dangerous builds = 1
Total wall time: 0:00:07
Equilibrating at temperature 0.7
LAMMPS (15 Sep 2022)
OMP_NUM_THREADS environment is not set. Defaulting to 1 thread. (src/comm.cpp:98)
  using 1 OpenMP thread(s) per MPI task
Reading restart file ...
  restart file = 15 Sep 2022, LAMMPS = 15 Sep 2022
  restoring atom style atomic from restart
  orthogonal box = (0 0 0) to (6.6943295 6.6943295 6.6943295)
  1 by 2 by 2 MPI processor grid
  restoring pair style lj/cut from restart
  360 atoms
  read_restart CPU = 0.002 seconds
Setting up equilibration run
Resetting global fix info from restart file:
  fix style: nvt, fix ID: 1
Generated 0 of 1 mixed pair_coeff terms from geometric mixing rule
All restart file global fix info was re-assigned
Neighbor list info ...
  update: every = 1 steps, delay = 25 steps, check = yes
  max neighbors/atom: 2000, page size: 100000
  master list distance cutoff = 3
  ghost atom cutoff = 3
  binsize = 1.5, bins = 5 5 5
  1 neighbor lists, perpetual/occasional/extra = 1 0 0
  (1) pair lj/cut, perpetual
      attributes: half, newton on
      pair build: half/bin/atomonly/newton
      stencil: half/bin/3d
      bin: standard
Setting up Verlet run ...
  Unit style    : lj
  Current step  : 0
  Time step     : 0.003
Per MPI rank memory allocation (min/avg/max) = 3.137 | 3.138 | 3.139 Mbytes
   Step          Temp          E_pair         E_mol          TotEng         Press     
         0   0.69039105    -6.4853282      0             -5.4526183      6.731832     
      6000   0.68704278    -6.5850002      0             -5.5572987      5.9699612    
     12000   0.72552566    -6.5827869      0             -5.4975214      6.1459969    
     18000   0.69950168    -6.4164566      0             -5.3701187      7.1492162    
     24000   0.65901424    -6.6172868      0             -5.6315113      5.6864228    
     30000   0.68136535    -6.5856879      0             -5.5664789      5.9141597    
     36000   0.69796232    -6.54853        0             -5.5044947      6.2843429    
     42000   0.69489488    -6.402901       0             -5.3634541      7.0635286    
     45000   0.75446677    -6.4843922      0             -5.3558356      6.7736267    
Loop time of 8.90604 on 4 procs for 45000 steps with 360 atoms

Performance: 1309673.206 tau/day, 5052.752 timesteps/s, 1.819 Matom-step/s
86.7% CPU use with 4 MPI tasks x 1 OpenMP threads

MPI task timing breakdown:
Section |  min time  |  avg time  |  max time  |%varavg| %total
---------------------------------------------------------------
Pair    | 2.254      | 2.3587     | 2.4576     |   5.0 | 26.48
Neigh   | 0.24353    | 0.25383    | 0.26237    |   1.3 |  2.85
Comm    | 1.4952     | 3.2699     | 3.9756     |  56.8 | 36.72
Output  | 1.6115     | 2.3671     | 4.626      |  84.8 | 26.58
Modify  | 0.14334    | 0.15551    | 0.16712    |   2.1 |  1.75
Other   |            | 0.501      |            |       |  5.63

Nlocal:             90 ave          94 max          86 min
Histogram: 1 0 0 1 0 0 1 0 0 1
Nghost:           1239 ave        1262 max        1217 min
Histogram: 2 0 0 0 0 0 0 0 1 1
Neighs:        5200.75 ave        5563 max        5029 min
Histogram: 2 0 1 0 0 0 0 0 0 1

Total # of neighbors = 20803
Ave neighs/atom = 57.786111
Neighbor list builds = 1475
Dangerous builds = 94
Total wall time: 0:00:09
Equilibrating at temperature 0.65
LAMMPS (15 Sep 2022)
OMP_NUM_THREADS environment is not set. Defaulting to 1 thread. (src/comm.cpp:98)
  using 1 OpenMP thread(s) per MPI task
Reading restart file ...
  restart file = 15 Sep 2022, LAMMPS = 15 Sep 2022
  restoring atom style atomic from restart
  orthogonal box = (0 0 0) to (6.6943295 6.6943295 6.6943295)
  1 by 2 by 2 MPI processor grid
  restoring pair style lj/cut from restart
  360 atoms
  read_restart CPU = 0.002 seconds
Setting up equilibration run
Resetting global fix info from restart file:
  fix style: nvt, fix ID: 1
Generated 0 of 1 mixed pair_coeff terms from geometric mixing rule
All restart file global fix info was re-assigned
Neighbor list info ...
  update: every = 1 steps, delay = 25 steps, check = yes
  max neighbors/atom: 2000, page size: 100000
  master list distance cutoff = 3
  ghost atom cutoff = 3
  binsize = 1.5, bins = 5 5 5
  1 neighbor lists, perpetual/occasional/extra = 1 0 0
  (1) pair lj/cut, perpetual
      attributes: half, newton on
      pair build: half/bin/atomonly/newton
      stencil: half/bin/3d
      bin: standard
Setting up Verlet run ...
  Unit style    : lj
  Current step  : 0
  Time step     : 0.003
Per MPI rank memory allocation (min/avg/max) = 3.137 | 3.137 | 3.137 Mbytes
   Step          Temp          E_pair         E_mol          TotEng         Press     
         0   0.6256403     -6.6264349      0             -5.6905813      5.6400966    
     70000   0.65815716    -6.5848903      0             -5.6003969      6.0100177    
     87500   0.69771734    -6.4781576      0             -5.4344888      6.5584037    
Loop time of 12.0016 on 4 procs for 87500 steps with 360 atoms

Performance: 1889755.819 tau/day, 7290.725 timesteps/s, 2.625 Matom-step/s
91.8% CPU use with 4 MPI tasks x 1 OpenMP threads

MPI task timing breakdown:
Section |  min time  |  avg time  |  max time  |%varavg| %total
---------------------------------------------------------------
Pair    | 4.511      | 4.5916     | 4.645      |   2.5 | 38.26
Neigh   | 0.46836    | 0.47199    | 0.47557    |   0.4 |  3.93
Comm    | 2.7243     | 4.0583     | 4.5624     |  38.3 | 33.81
Output  | 1.5053     | 2.0788     | 3.7931     |  68.6 | 17.32
Modify  | 0.27962    | 0.29356    | 0.30684    |   2.0 |  2.45
Other   |            | 0.5073     |            |       |  4.23

Nlocal:             90 ave          96 max          87 min
Histogram: 1 1 1 0 0 0 0 0 0 1
Nghost:         1231.5 ave        1239 max        1217 min
Histogram: 1 0 0 0 0 0 1 0 0 2
Neighs:        5208.75 ave        5619 max        4891 min
Histogram: 1 0 1 0 0 1 0 0 0 1

Total # of neighbors = 20835
Ave neighs/atom = 57.875
Neighbor list builds = 2743
Dangerous builds = 97
Total wall time: 0:00:12
Equilibrating at temperature 0.6
LAMMPS (15 Sep 2022)
OMP_NUM_THREADS environment is not set. Defaulting to 1 thread. (src/comm.cpp:98)
  using 1 OpenMP thread(s) per MPI task
Reading restart file ...
  restart file = 15 Sep 2022, LAMMPS = 15 Sep 2022
  restoring atom style atomic from restart
  orthogonal box = (0 0 0) to (6.6943295 6.6943295 6.6943295)
  1 by 2 by 2 MPI processor grid
  restoring pair style lj/cut from restart
  360 atoms
  read_restart CPU = 0.002 seconds
Setting up equilibration run
Resetting global fix info from restart file:
  fix style: nvt, fix ID: 1
Generated 0 of 1 mixed pair_coeff terms from geometric mixing rule
All restart file global fix info was re-assigned
Neighbor list info ...
  update: every = 1 steps, delay = 25 steps, check = yes
  max neighbors/atom: 2000, page size: 100000
  master list distance cutoff = 3
  ghost atom cutoff = 3
  binsize = 1.5, bins = 5 5 5
  1 neighbor lists, perpetual/occasional/extra = 1 0 0
  (1) pair lj/cut, perpetual
      attributes: half, newton on
      pair build: half/bin/atomonly/newton
      stencil: half/bin/3d
      bin: standard
Setting up Verlet run ...
  Unit style    : lj
  Current step  : 0
  Time step     : 0.003
Per MPI rank memory allocation (min/avg/max) = 3.137 | 3.138 | 3.139 Mbytes
   Step          Temp          E_pair         E_mol          TotEng         Press     
         0   0.59656466    -6.6648059      0             -5.7724446      5.4874664    
     50000   0.62553336    -6.7025895      0             -5.7668959      5.1438512    
    100000   0.54876226    -6.6917315      0             -5.8708746      5.258214     
    150000   0.5983155     -6.6964329      0             -5.8014526      5.154472     
    200000   0.57129271    -6.644442       0             -5.7898833      5.2340881    
    250000   0.61183316    -6.6699761      0             -5.7547757      5.4497132    
Loop time of 26.7267 on 4 procs for 250000 steps with 360 atoms

Performance: 2424542.523 tau/day, 9353.945 timesteps/s, 3.367 Matom-step/s
96.5% CPU use with 4 MPI tasks x 1 OpenMP threads

MPI task timing breakdown:
Section |  min time  |  avg time  |  max time  |%varavg| %total
---------------------------------------------------------------
Pair    | 12.862     | 13.045     | 13.223     |   4.5 | 48.81
Neigh   | 1.2678     | 1.2794     | 1.2902     |   1.0 |  4.79
Comm    | 7.7618     | 8.6683     | 9.0761     |  18.1 | 32.43
Output  | 1.8358     | 2.2227     | 3.3766     |  44.7 |  8.32
Modify  | 0.79792    | 0.84627    | 0.89588    |   5.1 |  3.17
Other   |            | 0.6649     |            |       |  2.49

Nlocal:             90 ave          93 max          88 min
Histogram: 1 0 1 0 1 0 0 0 0 1
Nghost:           1234 ave        1247 max        1217 min
Histogram: 1 0 0 0 0 1 0 1 0 1
Neighs:        5193.25 ave        5432 max        5032 min
Histogram: 1 0 1 1 0 0 0 0 0 1

Total # of neighbors = 20773
Ave neighs/atom = 57.702778
Neighbor list builds = 7476
Dangerous builds = 137
Total wall time: 0:00:26
Equilibrating at temperature 0.55
LAMMPS (15 Sep 2022)
OMP_NUM_THREADS environment is not set. Defaulting to 1 thread. (src/comm.cpp:98)
  using 1 OpenMP thread(s) per MPI task
Reading restart file ...
  restart file = 15 Sep 2022, LAMMPS = 15 Sep 2022
  restoring atom style atomic from restart
  orthogonal box = (0 0 0) to (6.6943295 6.6943295 6.6943295)
  1 by 2 by 2 MPI processor grid
  restoring pair style lj/cut from restart
  360 atoms
  read_restart CPU = 0.003 seconds
Setting up equilibration run
Resetting global fix info from restart file:
  fix style: nvt, fix ID: 1
Generated 0 of 1 mixed pair_coeff terms from geometric mixing rule
All restart file global fix info was re-assigned
Neighbor list info ...
  update: every = 1 steps, delay = 25 steps, check = yes
  max neighbors/atom: 2000, page size: 100000
  master list distance cutoff = 3
  ghost atom cutoff = 3
  binsize = 1.5, bins = 5 5 5
  1 neighbor lists, perpetual/occasional/extra = 1 0 0
  (1) pair lj/cut, perpetual
      attributes: half, newton on
      pair build: half/bin/atomonly/newton
      stencil: half/bin/3d
      bin: standard
Setting up Verlet run ...
  Unit style    : lj
  Current step  : 0
  Time step     : 0.003
Per MPI rank memory allocation (min/avg/max) = 3.138 | 3.138 | 3.139 Mbytes
   Step          Temp          E_pair         E_mol          TotEng         Press     
         0   0.53963069    -6.8617778      0             -6.0545803      4.24813      
     30000   0.57853264    -6.8234869      0             -5.9580985      4.4653341    
     60000   0.57197617    -6.8478597      0             -5.9922787      4.215257     
     90000   0.57176239    -6.7990706      0             -5.9438093      4.7167698    
    120000   0.54983468    -6.7694583      0             -5.9469972      4.6562366    
    150000   0.55876313    -6.6963221      0             -5.8605056      4.9907846    
    180000   0.54004427    -6.8417611      0             -6.0339449      4.309898     
    210000   0.5509258     -6.8244883      0             -6.0003952      4.3263323    
    240000   0.54671983    -6.9067423      0             -6.0889406      3.8969597    
    270000   0.48910987    -6.826585       0             -6.0949581      4.3027813    
    300000   0.56907481    -6.7467708      0             -5.8955297      4.7769591    
    330000   0.56446489    -6.8017878      0             -5.9574424      4.7677185    
    360000   0.54378435    -6.773357       0             -5.9599462      4.5272496    
    390000   0.53727101    -6.7951158      0             -5.9914479      4.5639965    
    420000   0.54648828    -6.7694805      0             -5.9520251      4.623252     
    450000   0.56299833    -6.8221888      0             -5.9800372      4.4162547    
    480000   0.59346044    -6.7906504      0             -5.9029324      4.4820163    
    510000   0.57371345    -6.7495033      0             -5.8913236      4.8990614    
    540000   0.55243014    -6.8774942      0             -6.0511508      3.9666444    
    570000   0.56850168    -6.8386439      0             -5.9882602      4.2674275    
    600000   0.57215172    -6.7264342      0             -5.8705906      4.8662893    
    630000   0.53376024    -6.8632526      0             -6.0648362      4.0305726    
    660000   0.57645729    -6.8399933      0             -5.9777093      4.4091126    
    690000   0.58246223    -6.8098426      0             -5.9385762      4.4582409    
    720000   0.59063448    -6.7711111      0             -5.8876203      4.7741924    
    750000   0.54352093    -6.8001197      0             -5.987103       4.4586038    
Loop time of 78.7381 on 4 procs for 750000 steps with 360 atoms

Performance: 2468945.548 tau/day, 9525.253 timesteps/s, 3.429 Matom-step/s
97.0% CPU use with 4 MPI tasks x 1 OpenMP threads

MPI task timing breakdown:
Section |  min time  |  avg time  |  max time  |%varavg| %total
---------------------------------------------------------------
Pair    | 38.127     | 39.653     | 41.841     |  21.8 | 50.36
Neigh   | 3.5801     | 3.6336     | 3.6906     |   2.1 |  4.61
Comm    | 24.319     | 25.78      | 28.063     |  30.7 | 32.74
Output  | 4.4685     | 5.4399     | 8.3462     |  71.9 |  6.91
Modify  | 2.3696     | 2.4539     | 2.5936     |   5.5 |  3.12
Other   |            | 1.778      |            |       |  2.26

Nlocal:             90 ave          97 max          84 min
Histogram: 1 0 0 1 0 1 0 0 0 1
Nghost:         1237.5 ave        1256 max        1218 min
Histogram: 1 0 0 0 1 0 1 0 0 1
Neighs:         5187.5 ave        5579 max        4728 min
Histogram: 1 0 0 0 1 0 1 0 0 1

Total # of neighbors = 20750
Ave neighs/atom = 57.638889
Neighbor list builds = 21232
Dangerous builds = 151
Total wall time: 0:01:18
Equilibrating at temperature 0.5
LAMMPS (15 Sep 2022)
OMP_NUM_THREADS environment is not set. Defaulting to 1 thread. (src/comm.cpp:98)
  using 1 OpenMP thread(s) per MPI task
Reading restart file ...
ERROR on proc 0: Cannot open restart file equil/kalj_T0.5_n360_v300_10000000_1.final.lmprestart.10000000: No such file or directory (src/read_restart.cpp:113)
Last command: read_restart ${prevbasename}.final.lmprestart.${steps}
--------------------------------------------------------------------------
MPI_ABORT was invoked on rank 0 in communicator MPI_COMM_WORLD
with errorcode 1.

NOTE: invoking MPI_ABORT causes Open MPI to kill all MPI processes.
You may or may not see output from other processes, depending on
exactly when Open MPI kills them.
--------------------------------------------------------------------------
[warn] Epoll MOD(1) on fd 24 failed.  Old events were 6; read change was 0 (none); write change was 2 (del): Bad file descriptor
[warn] Epoll MOD(4) on fd 24 failed.  Old events were 6; read change was 2 (del); write change was 0 (none): Bad file descriptor
Equilibrating at temperature 0.475
LAMMPS (15 Sep 2022)
OMP_NUM_THREADS environment is not set. Defaulting to 1 thread. (src/comm.cpp:98)
  using 1 OpenMP thread(s) per MPI task
Reading restart file ...
ERROR on proc 0: Cannot open restart file equil/kalj_T0.475_n360_v300_30000000_1.final.lmprestart.30000000: No such file or directory (src/read_restart.cpp:113)
Last command: read_restart ${prevbasename}.final.lmprestart.${steps}
--------------------------------------------------------------------------
MPI_ABORT was invoked on rank 0 in communicator MPI_COMM_WORLD
with errorcode 1.

NOTE: invoking MPI_ABORT causes Open MPI to kill all MPI processes.
You may or may not see output from other processes, depending on
exactly when Open MPI kills them.
--------------------------------------------------------------------------
[warn] Epoll MOD(1) on fd 25 failed.  Old events were 6; read change was 0 (none); write change was 2 (del): Bad file descriptor
[warn] Epoll MOD(4) on fd 25 failed.  Old events were 6; read change was 2 (del); write change was 0 (none): Bad file descriptor
