ITEM: TIMESTEP
100000
ITEM: NUMBER OF ATOMS
400
ITEM: BOX BOUNDS pp pp pp
0.0000000000000000e+00 2.3094010767585029e+01
0.0000000000000000e+00 2.3094010767585029e+01
-5.7735026918962573e-01 5.7735026918962573e-01
ITEM: ATOMS id type xs ys zs
45 1 0.00322491 0.00864579 0.5
254 1 0.109893 0.0204103 0.5
266 1 0.248083 0.026075 0.5
41 1 0.344142 0.00116051 0.5
356 1 0.389874 0.0205973 0.5
186 1 0.455991 0.0235136 0.5
77 1 0.640889 0.013684 0.5
88 1 0.686 0.0141185 0.5
51 1 0.905345 0.00652706 0.5
264 1 0.947849 0.00522493 0.5
397 1 0.0559134 0.031854 0.5
281 1 0.161574 0.0522083 0.5
283 1 0.210884 0.0532132 0.5
280 1 0.310119 0.0347659 0.5
63 1 0.364396 0.0555084 0.5
204 1 0.507412 0.0312954 0.5
49 1 0.561891 0.0491883 0.5
332 1 0.744782 0.0432754 0.5
155 1 0.799618 0.039481 0.5
157 1 0.840928 0.0387182 0.5
70 1 0.880153 0.0493309 0.5
323 1 0.93265 0.0500085 0.5
336 1 0.98253 0.0495379 0.5
394 1 0.0216671 0.062798 0.5
106 1 0.0674421 0.0780379 0.5
320 1 0.119994 0.0831593 0.5
10 1 0.263296 0.0840985 0.5
116 1 0.322988 0.0792163 0.5
101 1 0.426714 0.0600677 0.5
151 1 0.483609 0.0654742 0.5
268 1 0.525416 0.0726259 0.5
131 1 0.61512 0.0646698 0.5
314 1 0.811806 0.0785353 0.5
98 1 0.858374 0.0839539 0.5
126 1 0.95957 0.0846187 0.5
335 1 0.172692 0.0975425 0.5
158 1 0.369493 0.105551 0.5
136 1 0.464953 0.101492 0.5
111 1 0.571601 0.110236 0.5
376 1 0.613147 0.108359 0.5
302 1 0.659671 0.100191 0.5
24 1 0.703914 0.109508 0.5
235 1 0.743572 0.0882617 0.5
290 1 0.908076 0.0979144 0.5
306 1 0.989185 0.111157 0.5
43 1 0.0647035 0.119504 0.5
122 1 0.102508 0.136331 0.5
189 1 0.154697 0.141194 0.5
305 1 0.195538 0.136171 0.5
371 1 0.23908 0.138601 0.5
341 1 0.279202 0.133435 0.5
198 1 0.323866 0.138645 0.5
308 1 0.407203 0.128457 0.5
331 1 0.510605 0.141593 0.5
345 1 0.643927 0.137179 0.5
179 1 0.789049 0.116644 0.5
57 1 0.838688 0.13987 0.5
117 1 0.886274 0.134749 0.5
90 1 0.958366 0.140506 0.5
167 1 0.364402 0.154259 0.5
83 1 0.454697 0.151625 0.5
71 1 0.552575 0.162998 0.5
260 1 0.60468 0.160152 0.5
123 1 0.708801 0.152888 0.5
86 1 0.757654 0.143593 0.5
265 1 0.911831 0.162545 0.5
287 1 0.0269611 0.179763 0.5
245 1 0.0955463 0.197345 0.5
333 1 0.143406 0.192455 0.5
240 1 0.18877 0.186818 0.5
315 1 0.264921 0.176922 0.5
134 1 0.331544 0.181272 0.5
270 1 0.377414 0.194124 0.5
177 1 0.417566 0.181108 0.5
257 1 0.512029 0.184726 0.5
227 1 0.660552 0.184147 0.5
13 1 0.704561 0.196339 0.5
346 1 0.754716 0.189455 0.5
237 1 0.809888 0.175123 0.5
338 1 0.862114 0.179625 0.5
380 1 0.979292 0.188518 0.5
361 1 0.0473147 0.223642 0.5
76 1 0.231186 0.20533 0.5
199 1 0.295586 0.20893 0.5
35 1 0.339051 0.226265 0.5
279 1 0.46099 0.206623 0.5
112 1 0.544262 0.213639 0.5
339 1 0.590501 0.207518 0.5
114 1 0.673982 0.226364 0.5
146 1 0.933818 0.201918 0.5
61 1 0.974607 0.22854 0.5
340 1 0.0100551 0.250806 0.5
121 1 0.0836743 0.244239 0.5
147 1 0.134607 0.234371 0.5
234 1 0.183002 0.241045 0.5
379 1 0.233737 0.247235 0.5
343 1 0.300001 0.252759 0.5
138 1 0.378563 0.251218 0.5
259 1 0.465082 0.25548 0.5
349 1 0.633391 0.241078 0.5
190 1 0.781417 0.23811 0.5
173 1 0.827049 0.246547 0.5
47 1 0.869765 0.23649 0.5
109 1 0.90912 0.247635 0.5
205 1 0.0463825 0.26945 0.5
274 1 0.202964 0.279703 0.5
170 1 0.345639 0.274854 0.5
288 1 0.420137 0.258112 0.5
26 1 0.506471 0.267894 0.5
316 1 0.590459 0.260189 0.5
373 1 0.664828 0.273504 0.5
223 1 0.715947 0.257993 0.5
12 1 0.768634 0.285299 0.5
384 1 0.950982 0.275457 0.5
222 1 0.00183458 0.298315 0.5
169 1 0.072082 0.307006 0.5
213 1 0.155096 0.288956 0.5
16 1 0.239027 0.308177 0.5
355 1 0.380954 0.306853 0.5
28 1 0.425086 0.301395 0.5
217 1 0.472107 0.299272 0.5
180 1 0.554654 0.293185 0.5
85 1 0.613871 0.29971 0.5
33 1 0.732967 0.307632 0.5
383 1 0.811799 0.291991 0.5
226 1 0.855076 0.287687 0.5
388 1 0.898424 0.295729 0.5
201 1 0.112942 0.317349 0.5
52 1 0.151791 0.339933 0.5
34 1 0.205103 0.336789 0.5
148 1 0.288708 0.323913 0.5
66 1 0.352231 0.338268 0.5
18 1 0.506298 0.3261 0.5
165 1 0.549936 0.336828 0.5
276 1 0.675222 0.323704 0.5
363 1 0.808082 0.342324 0.5
75 1 0.855877 0.340142 0.5
250 1 0.961994 0.322806 0.5
304 1 0.0486935 0.355019 0.5
29 1 0.0872423 0.368865 0.5
271 1 0.249516 0.360955 0.5
295 1 0.301126 0.363745 0.5
321 1 0.391681 0.355365 0.5
210 1 0.441752 0.34392 0.5
229 1 0.528591 0.370846 0.5
25 1 0.582774 0.362144 0.5
322 1 0.621 0.342868 0.5
132 1 0.745915 0.355239 0.5
103 1 0.922512 0.35231 0.5
56 1 0.992838 0.353878 0.5
381 1 0.149613 0.380933 0.5
267 1 0.207566 0.379954 0.5
184 1 0.350132 0.383079 0.5
400 1 0.390039 0.399156 0.5
84 1 0.472759 0.372561 0.5
137 1 0.660297 0.397638 0.5
359 1 0.703367 0.372374 0.5
15 1 0.791037 0.387629 0.5
330 1 0.83651 0.395197 0.5
42 1 0.907127 0.392166 0.5
289 1 0.954679 0.382405 0.5
207 1 0.998242 0.39802 0.5
144 1 0.0458887 0.412437 0.5
202 1 0.201117 0.425486 0.5
238 1 0.284204 0.404216 0.5
133 1 0.431525 0.402216 0.5
318 1 0.485018 0.416931 0.5
218 1 0.52536 0.421915 0.5
64 1 0.612679 0.424389 0.5
82 1 0.741109 0.403233 0.5
398 1 0.87139 0.42251 0.5
7 1 0.0884058 0.43018 0.5
130 1 0.137954 0.446006 0.5
291 1 0.28771 0.445293 0.5
392 1 0.359086 0.433831 0.5
242 1 0.405018 0.443052 0.5
80 1 0.449732 0.455603 0.5
14 1 0.55007 0.456613 0.5
5 1 0.650899 0.443815 0.5
3 1 0.748095 0.444731 0.5
73 1 0.816856 0.432477 0.5
352 1 0.91729 0.43847 0.5
2 1 0.991696 0.449716 0.5
19 1 0.0878948 0.484954 0.5
175 1 0.186795 0.469733 0.5
27 1 0.241816 0.459577 0.5
209 1 0.333523 0.482674 0.5
20 1 0.374684 0.47616 0.5
107 1 0.495085 0.463686 0.5
192 1 0.600788 0.480233 0.5
317 1 0.700238 0.468327 0.5
225 1 0.819581 0.476988 0.5
246 1 0.893069 0.474459 0.5
196 1 0.950706 0.465619 0.5
377 1 0.0175467 0.493693 0.5
378 1 0.193794 0.513114 0.5
354 1 0.289775 0.498903 0.5
4 1 0.411614 0.50721 0.5
156 1 0.470744 0.503381 0.5
303 1 0.518344 0.506358 0.5
255 1 0.562935 0.510125 0.5
382 1 0.646213 0.490493 0.5
200 1 0.726875 0.49927 0.5
357 1 0.768752 0.491411 0.5
251 1 0.860146 0.512866 0.5
368 1 0.97347 0.503051 0.5
269 1 0.0593903 0.516381 0.5
100 1 0.10302 0.530749 0.5
282 1 0.152771 0.531237 0.5
351 1 0.237277 0.519203 0.5
128 1 0.327514 0.534677 0.5
236 1 0.370686 0.517734 0.5
195 1 0.608262 0.522376 0.5
38 1 0.671873 0.530255 0.5
390 1 0.780001 0.540693 0.5
293 1 0.814507 0.519919 0.5
185 1 0.927059 0.51589 0.5
286 1 0.206387 0.55126 0.5
39 1 0.27818 0.554189 0.5
347 1 0.564457 0.564329 0.5
326 1 0.697407 0.571283 0.5
263 1 0.729538 0.545496 0.5
247 1 0.844423 0.55279 0.5
230 1 0.89289 0.546484 0.5
161 1 0.957121 0.57012 0.5
272 1 0.993684 0.54658 0.5
194 1 0.0275398 0.575252 0.5
366 1 0.0721835 0.572195 0.5
104 1 0.129102 0.572245 0.5
300 1 0.171902 0.576319 0.5
391 1 0.237151 0.595932 0.5
193 1 0.324019 0.587389 0.5
160 1 0.379385 0.580224 0.5
214 1 0.441033 0.582696 0.5
253 1 0.520999 0.579476 0.5
369 1 0.629561 0.576425 0.5
93 1 0.758896 0.578665 0.5
278 1 0.811887 0.57884 0.5
176 1 0.875389 0.596662 0.5
143 1 0.914664 0.585457 0.5
243 1 0.0511807 0.61968 0.5
233 1 0.0963863 0.605169 0.5
319 1 0.145989 0.611986 0.5
211 1 0.198374 0.615861 0.5
68 1 0.357083 0.619519 0.5
329 1 0.414555 0.615507 0.5
301 1 0.54804 0.620017 0.5
87 1 0.584111 0.60146 0.5
362 1 0.665743 0.604202 0.5
244 1 0.77399 0.620029 0.5
164 1 0.824419 0.618392 0.5
127 1 0.935102 0.628174 0.5
374 1 0.98508 0.613885 0.5
140 1 0.098034 0.645096 0.5
342 1 0.172182 0.651938 0.5
252 1 0.231997 0.643156 0.5
152 1 0.275069 0.652372 0.5
53 1 0.314656 0.633607 0.5
150 1 0.457423 0.634829 0.5
124 1 0.496858 0.654114 0.5
353 1 0.602323 0.642057 0.5
8 1 0.6584 0.650085 0.5
399 1 0.713673 0.628902 0.5
31 1 0.889056 0.636239 0.5
23 1 0.0103902 0.668159 0.5
285 1 0.0543001 0.664618 0.5
153 1 0.145693 0.685056 0.5
21 1 0.20175 0.680367 0.5
92 1 0.313586 0.681206 0.5
348 1 0.363028 0.678407 0.5
248 1 0.400127 0.660353 0.5
37 1 0.462868 0.681932 0.5
171 1 0.562115 0.659357 0.5
102 1 0.693983 0.671766 0.5
232 1 0.737994 0.682859 0.5
182 1 0.804164 0.668885 0.5
297 1 0.847696 0.671591 0.5
298 1 0.903896 0.677341 0.5
372 1 0.952747 0.666247 0.5
309 1 0.0387294 0.706204 0.5
69 1 0.0956985 0.693305 0.5
197 1 0.236519 0.704405 0.5
325 1 0.424502 0.697368 0.5
125 1 0.517351 0.69867 0.5
324 1 0.570759 0.711569 0.5
46 1 0.61866 0.69081 0.5
36 1 0.774799 0.708494 0.5
105 1 0.0682082 0.733009 0.5
241 1 0.328129 0.738214 0.5
212 1 0.383523 0.716774 0.5
181 1 0.418604 0.739708 0.5
145 1 0.473022 0.728488 0.5
54 1 0.646163 0.730048 0.5
97 1 0.698698 0.715486 0.5
11 1 0.738745 0.732685 0.5
296 1 0.815701 0.714469 0.5
312 1 0.859538 0.721583 0.5
108 1 0.908452 0.726032 0.5
166 1 0.982947 0.723461 0.5
277 1 0.0186325 0.749175 0.5
91 1 0.103359 0.764505 0.5
139 1 0.145243 0.747204 0.5
208 1 0.222211 0.747832 0.5
344 1 0.284129 0.74323 0.5
261 1 0.369523 0.762528 0.5
142 1 0.527694 0.767831 0.5
273 1 0.772588 0.763073 0.5
58 1 0.820844 0.76016 0.5
275 1 0.0387112 0.794191 0.5
119 1 0.126569 0.798963 0.5
65 1 0.222042 0.792457 0.5
72 1 0.277945 0.788008 0.5
30 1 0.4507 0.778536 0.5
159 1 0.594229 0.778971 0.5
174 1 0.640192 0.774501 0.5
89 1 0.684747 0.781922 0.5
284 1 0.730128 0.793755 0.5
387 1 0.88293 0.789477 0.5
310 1 0.926695 0.781126 0.5
358 1 0.984991 0.795641 0.5
188 1 0.170715 0.801184 0.5
95 1 0.333632 0.800583 0.5
44 1 0.399718 0.80328 0.5
256 1 0.442369 0.82659 0.5
17 1 0.499552 0.800674 0.5
163 1 0.559432 0.818882 0.5
62 1 0.623949 0.813822 0.5
311 1 0.666933 0.823604 0.5
55 1 0.787103 0.806483 0.5
386 1 0.838586 0.820179 0.5
183 1 0.0517194 0.834882 0.5
67 1 0.0987209 0.837146 0.5
154 1 0.172787 0.847794 0.5
360 1 0.221523 0.85691 0.5
168 1 0.258285 0.832546 0.5
110 1 0.364326 0.841006 0.5
334 1 0.520355 0.842109 0.5
365 1 0.591911 0.856117 0.5
203 1 0.801561 0.848575 0.5
149 1 0.881287 0.847113 0.5
239 1 0.925049 0.836209 0.5
118 1 0.997733 0.839872 0.5
224 1 0.0025156 0.880204 0.5
313 1 0.0627348 0.879112 0.5
367 1 0.137964 0.870397 0.5
60 1 0.275898 0.874053 0.5
258 1 0.316586 0.868727 0.5
228 1 0.392584 0.877761 0.5
40 1 0.471908 0.868859 0.5
162 1 0.55851 0.88073 0.5
191 1 0.643206 0.863818 0.5
81 1 0.707244 0.874001 0.5
350 1 0.762737 0.870209 0.5
94 1 0.829299 0.8853 0.5
292 1 0.957376 0.873397 0.5
50 1 0.0987923 0.900205 0.5
375 1 0.190057 0.895216 0.5
99 1 0.246653 0.907438 0.5
328 1 0.440909 0.911078 0.5
135 1 0.516309 0.888208 0.5
79 1 0.622218 0.903243 0.5
294 1 0.7836 0.910364 0.5
187 1 0.869744 0.893547 0.5
59 1 0.920311 0.896625 0.5
327 1 0.0455343 0.926549 0.5
299 1 0.095875 0.942817 0.5
6 1 0.139205 0.923209 0.5
178 1 0.213846 0.936004 0.5
113 1 0.314872 0.928461 0.5
385 1 0.372666 0.921622 0.5
262 1 0.475194 0.933845 0.5
215 1 0.530798 0.935725 0.5
115 1 0.583976 0.934422 0.5
221 1 0.696151 0.919495 0.5
364 1 0.750394 0.93672 0.5
1 1 0.86255 0.935203 0.5
216 1 0.958477 0.919489 0.5
249 1 0.999099 0.920819 0.5
220 1 0.0196993 0.969781 0.5
9 1 0.0628869 0.967372 0.5
370 1 0.175882 0.953374 0.5
48 1 0.253278 0.950325 0.5
22 1 0.344525 0.958999 0.5
96 1 0.396906 0.959496 0.5
231 1 0.4417 0.969489 0.5
32 1 0.658286 0.943741 0.5
219 1 0.803434 0.950738 0.5
74 1 0.932108 0.965163 0.5
395 1 0.127669 0.977831 0.5
389 1 0.164927 0.999168 0.5
307 1 0.213353 0.99072 0.5
206 1 0.293768 0.99008 0.5
141 1 0.480737 0.988369 0.5
396 1 0.564568 0.996324 0.5
120 1 0.606653 0.973097 0.5
78 1 0.700463 0.972615 0.5
337 1 0.74331 0.986193 0.5
172 1 0.788944 0.998169 0.5
393 1 0.830106 0.988754 0.5
129 1 0.977757 0.971593 0.5
