LAMMPS (15 Sep 2022)
OMP_NUM_THREADS environment is not set. Defaulting to 1 thread. (src/comm.cpp:98)
  using 1 OpenMP thread(s) per MPI task
Lattice spacing in x,y,z = 1.1547005 1.1547005 1.1547005
Created orthogonal box = (0 0 -0.57735027) to (23.094011 23.094011 0.57735027)
  1 by 1 by 1 MPI processor grid
Created 400 atoms
  using lattice units in orthogonal box = (0 0 -0.57735027) to (23.094011 23.094011 0.57735027)
  create_atoms CPU = 0.000 seconds
Generated 0 of 0 mixed pair_coeff terms from geometric mixing rule
Neighbor list info ...
  update: every = 1 steps, delay = 0 steps, check = yes
  max neighbors/atom: 2000, page size: 100000
  master list distance cutoff = 1.3
  ghost atom cutoff = 1.3
  binsize = 0.65, bins = 36 36 2
  1 neighbor lists, perpetual/occasional/extra = 1 0 0
  (1) pair lj/cut, perpetual
      attributes: half, newton on
      pair build: half/bin/atomonly/newton
      stencil: half/bin/2d
      bin: standard
Setting up Verlet run ...
  Unit style    : lj
  Current step  : 0
  Time step     : 0.01
Per MPI rank memory allocation (min/avg/max) = 3.057 | 3.057 | 3.057 Mbytes
   Step          Temp          E_pair         E_mol          TotEng         Press     
         0   3              0              0              2.9925         2.244375     
       500   2.8789124      0.50615247     0              3.3778676      9.6918653    
      1000   2.9573563      0.50112363     0              3.4510866      9.4208905    
      1500   2.8767786      0.59068558     0              3.4602722      10.538365    
      2000   2.8623251      0.46796101     0              3.3231303      9.0792111    
      2500   2.9418444      0.59480853     0              3.5292983      10.281755    
      3000   2.9150554      0.63259292     0              3.5403607      10.816444    
      3500   2.9364875      0.6450935      0              3.5742398      10.729657    
      4000   3.2996623      0.60637019     0              3.8977833      11.110368    
      4500   2.9706895      0.6602552      0              3.623518       11.268529    
      5000   2.9483767      0.56368595     0              3.5046917      10.085238    
      5500   2.942892       0.54162719     0              3.477162       9.8767213    
      6000   2.9691532      0.37425618     0              3.3359865      8.0832544    
      6500   2.8802481      0.51973432     0              3.3927818      9.5073552    
      7000   3.0964061      0.49957965     0              3.5882448      9.4119115    
      7500   3.0485143      0.48413702     0              3.52503        9.3578191    
      8000   3.0210147      0.54643057     0              3.5598927      10.329685    
      8500   3.0867411      0.56590605     0              3.6449303      10.236326    
      9000   2.8240824      0.47625211     0              3.2932743      9.2445807    
      9500   2.8996813      0.45736716     0              3.3497993      8.8369506    
     10000   2.9405643      0.42450625     0              3.3577192      8.5506789    
     10500   2.9656869      0.51251585     0              3.4707885      9.5691258    
     11000   2.881129       0.47503352     0              3.3489597      9.3885532    
     11500   2.7377827      0.48350757     0              3.2144458      9.0029793    
     12000   2.6753159      0.52199612     0              3.1906237      9.1999103    
     12500   2.8650054      0.50535067     0              3.3631935      9.1509863    
     13000   2.9339394      0.54048843     0              3.467093       9.7661221    
     13500   2.9578313      0.52850673     0              3.4789435      9.8714566    
     14000   2.9100216      0.48943084     0              3.3921774      9.3528865    
     14500   2.8698601      0.62294193     0              3.4856274      10.621799    
     15000   2.9739582      0.48133824     0              3.4478616      9.1350634    
     15500   2.8277452      0.51695711     0              3.3376329      9.5595284    
     16000   2.9650315      0.56098171     0              3.5186007      10.261693    
     16500   3.0298681      0.67413096     0              3.6964243      11.335425    
     17000   3.1764465      0.57891149     0              3.7474169      10.401839    
     17500   3.2586544      0.57202517     0              3.8225329      10.073564    
     18000   3.0200762      0.43269611     0              3.4452222      8.8358176    
     18500   2.7336969      0.67405772     0              3.4009203      10.998386    
     19000   2.902552       0.62971861     0              3.5250142      10.757226    
     19500   3.0281452      0.4881417      0              3.5087165      9.4762228    
     20000   2.8682711      0.46905731     0              3.3301577      9.0273175    
     20500   2.9613629      0.4731265      0              3.427086       9.2915609    
     21000   2.9862591      0.57248467     0              3.5512781      10.167891    
     21500   3.1285823      0.58060133     0              3.7013621      9.9622218    
     22000   3.0236478      0.59499535     0              3.611084       10.27357     
     22500   3.0435007      0.62852536     0              3.6644173      11.021181    
     23000   3.0342024      0.53016484     0              3.5567817      9.6626062    
     23500   3.0704964      0.51695046     0              3.5797706      10.045474    
     24000   3.1689721      0.50039887     0              3.6614485      9.670798     
     24500   3.2211817      0.46783792     0              3.6809666      9.1181697    
     25000   3.1249591      0.58727134     0              3.7044181      10.292079    
     25500   3.2300849      0.62617276     0              3.8481825      10.746517    
     26000   3.3001365      0.47963556     0              3.7715217      9.5587444    
     26500   2.8093723      0.60333483     0              3.4056837      10.682669    
     27000   2.837614       0.54214775     0              3.3726677      9.8963421    
     27500   2.8771716      0.53482372     0              3.4048024      9.8961323    
     28000   3.0126099      0.41029186     0              3.4153702      8.9110516    
     28500   2.9888712      0.46607075     0              3.4474697      9.3364899    
     29000   2.751267       0.55571917     0              3.300108       10.234922    
     29500   2.9055811      0.5528106      0              3.4511278      10.279375    
     30000   3.0653638      0.48114277     0              3.5388432      9.5795409    
     30500   2.9369325      0.56404779     0              3.493638       10.175192    
     31000   3.02095        0.60810263     0              3.6215002      10.4106      
     31500   2.8617043      0.69899707     0              3.5535471      11.343565    
     32000   3.3226841      0.48908811     0              3.8034655      9.6984084    
     32500   3.1188993      0.55528197     0              3.666384       9.9673881    
     33000   3.0456445      0.56466617     0              3.6026966      10.401192    
     33500   3.0492108      0.65549621     0              3.697084       11.185283    
     34000   3.1912142      0.61810523     0              3.8013414      11.374673    
     34500   3.3274686      0.58025849     0              3.8994084      11.135705    
     35000   3.0425628      0.61227293     0              3.6472294      10.774929    
     35500   3.1092908      0.49900939     0              3.600527       9.2194382    
     36000   3.1105525      0.48787762     0              3.5906538      9.8568017    
     36500   2.6407104      0.48574892     0              3.1198575      8.9550933    
     37000   2.8589353      0.42717743     0              3.2789654      8.5743222    
     37500   2.9928845      0.41408873     0              3.399491       8.5584306    
     38000   2.9592575      0.62990351     0              3.5817629      10.796657    
     38500   3.1774618      0.73761961     0              3.9071377      12.067892    
     39000   3.1555855      0.4120557      0              3.5597522      8.3820731    
     39500   3.1287547      0.55364317     0              3.674576       9.8987533    
     40000   3.0470378      0.5016163      0              3.5410365      9.3831961    
     40500   3.2091692      0.44390825     0              3.6450545      9.1284704    
     41000   3.5164934      0.42472385     0              3.932426       9.1183324    
     41500   3.1543316      0.52580403     0              3.6722498      9.9759509    
     42000   3.0977824      0.59490022     0              3.6849382      10.689468    
     42500   3.0645293      0.57219611     0              3.629064       10.087941    
     43000   3.0223633      0.62040923     0              3.6352166      10.998913    
     43500   3.3663252      0.51758831     0              3.8754977      9.8334667    
     44000   3.0871431      0.59769514     0              3.6771204      11.151861    
     44500   3.1382082      0.48159786     0              3.6119606      9.4452562    
     45000   3.4685284      0.48930832     0              3.9491654      9.9641231    
     45500   3.1582192      0.64994303     0              3.8002667      11.280766    
     46000   3.2206807      0.50404301     0              3.716672       9.8234566    
     46500   3.0190002      0.55738562     0              3.5688383      10.009769    
     47000   2.9710018      0.47787045     0              3.4414447      9.1620735    
     47500   2.8714911      0.48460375     0              3.3489162      9.5045576    
     48000   2.6993481      0.5606303      0              3.25323        10.133171    
     48500   2.7132325      0.49475459     0              3.201204       8.9961982    
     49000   2.8969696      0.42902427     0              3.3187514      8.7729961    
     49500   3.0022245      0.5003302      0              3.4950491      9.7301346    
     50000   2.7239073      0.64607674     0              3.3631743      10.863058    
Loop time of 1.6391 on 1 procs for 50000 steps with 400 atoms

Performance: 26355935.234 tau/day, 30504.555 timesteps/s, 12.202 Matom-step/s
99.2% CPU use with 1 MPI tasks x 1 OpenMP threads

MPI task timing breakdown:
Section |  min time  |  avg time  |  max time  |%varavg| %total
---------------------------------------------------------------
Pair    | 0.3916     | 0.3916     | 0.3916     |   0.0 | 23.89
Neigh   | 0.8002     | 0.8002     | 0.8002     |   0.0 | 48.82
Comm    | 0.088142   | 0.088142   | 0.088142   |   0.0 |  5.38
Output  | 0.0043155  | 0.0043155  | 0.0043155  |   0.0 |  0.26
Modify  | 0.25718    | 0.25718    | 0.25718    |   0.0 | 15.69
Other   |            | 0.09766    |            |       |  5.96

Nlocal:            400 ave         400 max         400 min
Histogram: 1 0 0 0 0 0 0 0 0 0
Nghost:             87 ave          87 max          87 min
Histogram: 1 0 0 0 0 0 0 0 0 0
Neighs:            716 ave         716 max         716 min
Histogram: 1 0 0 0 0 0 0 0 0 0

Total # of neighbors = 716
Ave neighs/atom = 1.79
Neighbor list builds = 16923
Dangerous builds = 0
Generated 0 of 0 mixed pair_coeff terms from geometric mixing rule
Setting up Verlet run ...
  Unit style    : lj
  Current step  : 50000
  Time step     : 0.01
Per MPI rank memory allocation (min/avg/max) = 3.084 | 3.084 | 3.084 Mbytes
   Step          Temp          E_pair         E_mol          TotEng         Press     
     50000   2.7239073      0.64607674     0              3.3631743      10.863058    
     50500   2.9822725      0.40948114     0              3.3842979      8.1703303    
     51000   2.7202438      0.64800822     0              3.3614514      10.606999    
     51500   2.6901534      0.55544745     0              3.2388755      10.113879    
     52000   2.7866547      0.50418477     0              3.2838728      9.6386081    
     52500   2.9030611      0.47950851     0              3.375312       9.1201288    
     53000   2.7542581      0.36907468     0              3.1164472      7.7567166    
     53500   2.8656321      0.48341802     0              3.341886       9.0613129    
     54000   2.9303993      0.56441233     0              3.4874856      10.351625    
     54500   2.9453946      0.55659497     0              3.494626       10.186603    
     55000   2.8741683      0.61032976     0              3.4773126      10.623674    
     55500   2.7907516      0.45318706     0              3.2369617      8.9676439    
     56000   2.8100494      0.48277125     0              3.2857955      9.0341324    
     56500   2.7688374      0.5463311      0              3.3082464      9.6328322    
     57000   2.7707304      0.52596911     0              3.2897727      9.66674      
     57500   2.8120994      0.46091874     0              3.2659879      9.2134895    
     58000   2.7579023      0.55327902     0              3.3042866      9.8276679    
     58500   3.0405374      0.45031033     0              3.4832463      9.0997593    
     59000   2.7956072      0.61496288     0              3.403581       10.775203    
     59500   2.7336263      0.52391005     0              3.2507023      9.5715043    
     60000   2.6593562      0.58913303     0              3.2418408      9.8858341    
     60500   2.8350642      0.49358818     0              3.3215647      9.2698719    
     61000   2.9336901      0.50226253     0              3.4286184      9.5707179    
     61500   2.8120906      0.55647958     0              3.36154        10.163128    
     62000   2.7271708      0.5260905      0              3.2464433      9.3681228    
     62500   2.7308289      0.49905235     0              3.2230542      9.0394199    
     63000   2.6044228      0.53345887     0              3.1313706      9.6422131    
     63500   2.5829773      0.41967437     0              2.9961942      8.2533361    
     64000   2.3644755      0.43913153     0              2.7976958      8.3898679    
     64500   2.5345931      0.4405722      0              2.9688288      8.6062283    
     65000   2.4313448      0.48013355     0              2.9054         8.9288337    
     65500   2.3085722      0.50719956     0              2.8100003      9.3606396    
     66000   2.476447       0.47827211     0              2.948528       8.8795241    
     66500   2.4958769      0.36251938     0              2.8521566      7.4642323    
     67000   2.4618977      0.50094124     0              2.9566842      9.1514705    
     67500   2.4698712      0.41460308     0              2.8782996      8.3355285    
     68000   2.4573107      0.47765255     0              2.9288199      8.8324841    
     68500   2.177433       0.36277114     0              2.5347606      7.3534534    
     69000   2.3085179      0.40708684     0              2.7098334      7.9856308    
     69500   2.392086       0.41762731     0              2.8037331      8.1779364    
     70000   2.3623905      0.38584563     0              2.7423302      7.5845924    
     70500   2.3017212      0.41009559     0              2.7060625      7.9403533    
     71000   2.3533999      0.337062       0              2.6845784      6.9536871    
     71500   2.2770192      0.40971385     0              2.6810405      7.9668553    
     72000   2.2500839      0.4644652      0              2.7089239      8.6869403    
     72500   2.2685477      0.46722543     0              2.7301017      8.8692205    
     73000   2.3524772      0.4606111      0              2.8072071      8.3072353    
     73500   2.3434072      0.40688716     0              2.7444359      8.0162701    
     74000   2.338618       0.39800579     0              2.7307772      7.8931087    
     74500   2.3465834      0.42802715     0              2.7687441      8.244821     
     75000   2.3048583      0.42051174     0              2.7196079      8.3346883    
     75500   2.2705459      0.39006229     0              2.6549318      7.8442533    
     76000   2.3212166      0.35898059     0              2.6743942      7.5265556    
     76500   2.3307787      0.34561795     0              2.6705697      7.4507104    
     77000   2.3750189      0.3309475      0              2.7000288      7.2034802    
     77500   2.2298582      0.45915978     0              2.6834434      8.6667119    
     78000   2.3968396      0.38124055     0              2.772088       7.5947812    
     78500   2.2048206      0.35579565     0              2.5551042      7.4783145    
     79000   2.1991861      0.3133381      0              2.5070263      6.6681158    
     79500   2.0397809      0.40916314     0              2.4438446      7.8142909    
     80000   2.0086845      0.39274284     0              2.3964056      7.9233812    
     80500   1.9165274      0.38288237     0              2.2946184      7.4422772    
     81000   2.0333287      0.31905804     0              2.3473034      6.4642261    
     81500   2.0055535      0.31852475     0              2.3190644      6.705876     
     82000   2.0381738      0.30395371     0              2.337032       6.7369836    
     82500   1.98071        0.36103534     0              2.3367935      7.1761763    
     83000   1.9592838      0.33507922     0              2.2894648      6.810825     
     83500   1.8669911      0.33917076     0              2.2014944      7.0218715    
     84000   1.9727069      0.30564201     0              2.2734172      6.7095199    
     84500   1.8726229      0.39898312     0              2.2669245      7.4849873    
     85000   1.9451446      0.35658094     0              2.2968627      7.1004799    
     85500   1.7482382      0.26314725     0              2.0070149      5.8502894    
     86000   1.7614267      0.34824638     0              2.1052695      7.0834365    
     86500   1.8802631      0.35762719     0              2.2331896      7.0443287    
     87000   1.9871658      0.23076418     0              2.2129621      5.7672144    
     87500   1.770456       0.29760022     0              2.0636301      6.2685825    
     88000   1.8436077      0.29718324     0              2.1361819      6.4652543    
     88500   1.8906531      0.2711594      0              2.1570858      6.0294511    
     89000   1.8225617      0.23938931     0              2.0573946      5.5966505    
     89500   1.7827786      0.29266665     0              2.0709883      6.0645873    
     90000   1.9846953      0.26781844     0              2.247552       6.1050534    
     90500   1.9395895      0.3074631      0              2.2422036      6.4701046    
     91000   1.9434322      0.27038978     0              2.2089634      6.1651882    
     91500   1.8584425      0.30195827     0              2.1557546      6.7269408    
     92000   1.794489       0.22410862     0              2.0141114      5.5133524    
     92500   1.7165245      0.27761332     0              1.9898465      6.0285694    
     93000   1.734868       0.30829524     0              2.0388261      6.3132508    
     93500   1.7774026      0.27392682     0              2.0468859      6.144165     
     94000   1.8484749      0.26807438     0              2.1119281      6.1669302    
     94500   1.7821316      0.28887867     0              2.0665549      6.146652     
     95000   1.7799589      0.25165222     0              2.0271612      5.334028     
     95500   1.784069       0.30523456     0              2.0848434      6.3816444    
     96000   1.8135494      0.32879994     0              2.1378155      6.6911187    
     96500   1.7048366      0.33069949     0              2.031274       6.8298165    
     97000   1.7151686      0.27724479     0              1.9881254      5.9422204    
     97500   1.6632652      0.19747701     0              1.8565841      4.9180538    
     98000   1.5820171      0.25220058     0              1.8302627      5.3755644    
     98500   1.6060793      0.22708842     0              1.8291525      5.0496608    
     99000   1.5092975      0.27499221     0              1.7805164      5.9288297    
     99500   1.5468303      0.2703364      0              1.8132996      5.7823712    
    100000   1.4962701      0.30229348     0              1.7948229      6.0027856    
    100500   1.4885247      0.20146569     0              1.6862691      4.6513215    
    101000   1.5233193      0.22182229     0              1.7413333      5.1766301    
    101500   1.4598978      0.22853489     0              1.684783       5.2615175    
    102000   1.5401946      0.1923566      0              1.7287008      4.8330918    
    102500   1.4324855      0.26692841     0              1.6958327      5.7361005    
    103000   1.4955343      0.22575329     0              1.7175488      5.1061495    
    103500   1.4611083      0.20186011     0              1.6593156      4.8326173    
    104000   1.4228276      0.21058828     0              1.6298588      4.8999729    
    104500   1.392288       0.24920256     0              1.6380098      5.4775056    
    105000   1.5035112      0.20255233     0              1.7023048      5.0036119    
    105500   1.398276       0.21707336     0              1.6118537      5.0978342    
    106000   1.3159778      0.17851046     0              1.4911983      4.5797272    
    106500   1.3289495      0.19776786     0              1.523395       4.6616303    
    107000   1.308833       0.18819703     0              1.493758       4.6482659    
    107500   1.2078542      0.19283459     0              1.3976692      4.4557605    
    108000   1.2265709      0.21385974     0              1.4373642      4.8769487    
    108500   1.3085644      0.16985661     0              1.4751496      4.2050225    
    109000   1.264446       0.19552425     0              1.4568091      4.7196919    
    109500   1.3238713      0.17187715     0              1.4924388      4.3253541    
    110000   1.1275292      0.18894889     0              1.3136593      4.517924     
    110500   1.2222916      0.13852471     0              1.3577606      3.7554209    
    111000   1.2505491      0.17351141     0              1.4209341      4.3009553    
    111500   1.2741437      0.14185776     0              1.4128161      3.8952929    
    112000   1.2706057      0.2003459      0              1.4677751      4.9160642    
    112500   1.2191607      0.23850814     0              1.454621       5.1486514    
    113000   1.2473582      0.17344678     0              1.4176866      4.4358059    
    113500   1.2364404      0.15913646     0              1.3924857      4.1566918    
    114000   1.1647207      0.18602287     0              1.3478318      4.452839     
    114500   1.1666912      0.1561491      0              1.3199236      4.1079633    
    115000   1.1314415      0.17130852     0              1.2999215      4.2884999    
    115500   1.0511089      0.15154874     0              1.2000298      3.8431351    
    116000   1.0708718      0.14508297     0              1.2132776      3.6716979    
    116500   1.0417631      0.16042818     0              1.1995868      4.2719715    
    117000   1.0017756      0.12976576     0              1.1290369      3.6371826    
    117500   1.0341806      0.14446387     0              1.176059       3.7974281    
    118000   1.0044927      0.14536828     0              1.1473497      3.9151968    
    118500   1.0573695      0.118361       0              1.1730871      3.3873932    
    119000   0.96894285     0.16157161     0              1.1280921      3.9746981    
    119500   0.92518604     0.13254243     0              1.0554155      3.6896646    
    120000   0.98176567     0.11105376     0              1.090365       3.1780932    
    120500   0.89452214     0.14990017     0              1.042186       3.9205249    
    121000   0.95176887     0.08106172     0              1.0304512      2.7451743    
    121500   0.89287299     0.086244765    0              0.97688557     2.7762359    
    122000   0.86559649     0.13262447     0              0.99605697     3.4055793    
    122500   0.88192953     0.10715796     0              0.98688267     3.2509945    
    123000   0.88225483     0.12430445     0              1.0043536      3.3404938    
    123500   0.87529838     0.10601453     0              0.97912467     2.9065554    
    124000   0.89530533     0.11705516     0              1.0101222      3.2490307    
    124500   0.84182578     0.13469356     0              0.97441477     3.6175298    
    125000   0.87428788     0.1013365      0              0.97343867     3.0653254    
    125500   0.88889887     0.11579632     0              1.0024729      3.3257368    
    126000   0.87212203     0.12043497     0              0.9903767      3.3422051    
    126500   0.80777968     0.095008874    0              0.9007691      2.8769048    
    127000   0.74218055     0.10945346     0              0.84977856     2.8581257    
    127500   0.7127854      0.099276292    0              0.81027973     2.8220305    
    128000   0.71507867     0.067893231    0              0.78118421     2.3944999    
    128500   0.70437191     0.08295148     0              0.78556246     2.6571039    
    129000   0.6686696      0.087883941    0              0.75488186     2.6041273    
    129500   0.65657841     0.085515658    0              0.74045262     2.4109923    
    130000   0.68382315     0.073771518    0              0.75588511     2.4208062    
    130500   0.68229739     0.085146325    0              0.76573797     2.5053746    
    131000   0.65212784     0.085264266    0              0.73576178     2.6161233    
    131500   0.66517889     0.096586781    0              0.76010272     2.7670011    
    132000   0.63851673     0.061045157    0              0.69796559     2.1326018    
    132500   0.61534083     0.069261763    0              0.68306424     2.2683364    
    133000   0.60567324     0.058372186    0              0.66253125     2.108108     
    133500   0.52245291     0.057471487    0              0.57861826     2.0846592    
    134000   0.51871495     0.0675049      0              0.58492307     2.2374528    
    134500   0.53545605     0.073478516    0              0.60759592     2.2729149    
    135000   0.53299958     0.075975655    0              0.60764273     2.3260753    
    135500   0.53106973     0.068561675    0              0.59830373     2.2158711    
    136000   0.53526033     0.065150067    0              0.59907224     2.1576291    
    136500   0.51726639     0.06312051     0              0.57909373     2.152765     
    137000   0.44832898     0.048314839    0              0.495523       1.7616558    
    137500   0.43379814     0.044940847    0              0.47765449     1.685173     
    138000   0.42679653     0.04666935     0              0.47239889     1.6657999    
    138500   0.42322253     0.050833014    0              0.47299749     1.7826837    
    139000   0.40098453     0.040143611    0              0.44012568     1.5867427    
    139500   0.40113513     0.044278063    0              0.44441036     1.5580412    
    140000   0.41472801     0.039949126    0              0.45364031     1.5595268    
    140500   0.39835164     0.041700366    0              0.43905612     1.6386307    
    141000   0.3767582      0.045462206    0              0.42127851     1.6549945    
    141500   0.34994658     0.031836431    0              0.38090814     1.3833769    
    142000   0.3270776      0.030203182    0              0.35646309     1.3166348    
    142500   0.30268055     0.027328416    0              0.32925226     1.0368678    
    143000   0.28665241     0.026721031    0              0.31265681     1.1628963    
    143500   0.24246292     0.026220525    0              0.26807729     1.1304473    
    144000   0.26314104     0.02043656     0              0.28291974     0.98934349   
    144500   0.25823603     0.023284338    0              0.28087478     1.0648109    
    145000   0.23872041     0.020057649    0              0.25818125     0.9764142    
    145500   0.23765323     0.019026189    0              0.25608529     0.95381981   
    146000   0.23476559     0.016882385    0              0.25106107     0.90187328   
    146500   0.2178034      0.016178699    0              0.23343759     0.81559414   
    147000   0.19800216     0.017159021    0              0.21466617     0.89471292   
    147500   0.16327471     0.017571322    0              0.18043784     0.81515495   
    148000   0.14963752     0.011975889    0              0.16123932     0.67034718   
    148500   0.138669       0.010580076    0              0.14890241     0.63828119   
    149000   0.13264002     0.0064051091   0              0.13871353     0.44816899   
    149500   0.13310382     0.0064004827   0              0.13917155     0.43444804   
    150000   0.099945438    0.0058075222   0              0.1055031      0.41316769   
Loop time of 2.67918 on 1 procs for 100000 steps with 400 atoms

Performance: 32248725.859 tau/day, 37324.914 timesteps/s, 14.930 Matom-step/s
99.3% CPU use with 1 MPI tasks x 1 OpenMP threads

MPI task timing breakdown:
Section |  min time  |  avg time  |  max time  |%varavg| %total
---------------------------------------------------------------
Pair    | 0.69172    | 0.69172    | 0.69172    |   0.0 | 25.82
Neigh   | 1.1554     | 1.1554     | 1.1554     |   0.0 | 43.12
Comm    | 0.14092    | 0.14092    | 0.14092    |   0.0 |  5.26
Output  | 0.0072372  | 0.0072372  | 0.0072372  |   0.0 |  0.27
Modify  | 0.51269    | 0.51269    | 0.51269    |   0.0 | 19.14
Other   |            | 0.1712     |            |       |  6.39

Nlocal:            400 ave         400 max         400 min
Histogram: 1 0 0 0 0 0 0 0 0 0
Nghost:             96 ave          96 max          96 min
Histogram: 1 0 0 0 0 0 0 0 0 0
Neighs:            731 ave         731 max         731 min
Histogram: 1 0 0 0 0 0 0 0 0 0

Total # of neighbors = 731
Ave neighs/atom = 1.8275
Neighbor list builds = 24468
Dangerous builds = 0
Total wall time: 0:00:04
